<VTKFile type="UnstructuredGrid" version="1.0" byte_order="LittleEndian" header_type="UInt64">
<UnstructuredGrid>
<Piece NumberOfPoints="33796" NumberOfCells="66792">
<Points>
<DataArray NumberOfComponents="3" type="Float64">
1.0 0.0 0.0 
0.0 1.0 0.0 
-1.0 0.0 0.0 
0.0 -1.0 0.0 
3.0 0.0 0.0 
0.0 3.0 0.0 
-3.0 0.0 0.0 
0.0 -3.0 0.0 
0.999506560366 0.0314107590779 0.0 
0.998026728428 0.062790519529 0.0 
0.995561964603 0.0941083133181 0.0 
0.992114701315 0.125333233564 0.0 
0.987688340595 0.15643446504 0.0 
0.982287250729 0.187381314585 0.0 
0.975916761939 0.218143241396 0.0 
0.968583161129 0.248689887164 0.0 
0.960293685677 0.278991106039 0.0 
0.951056516295 0.309016994374 0.0 
0.940880768955 0.338737920244 0.0 
0.929776485889 0.368124552684 0.0 
0.917754625684 0.397147890634 0.0 
0.904827052467 0.425779291564 0.0 
0.891006524189 0.453990499738 0.0 
0.876306680045 0.481753674101 0.0 
0.860742027005 0.509041415749 0.0 
0.844327925503 0.535826794978 0.0 
0.827080574275 0.562083377851 0.0 
0.809016994376 0.587785252291 0.0 
0.790155012377 0.612907053652 0.0 
0.770513242777 0.637423989747 0.0 
0.750111069632 0.661311865322 0.0 
0.728968627423 0.684547105927 0.0 
0.707106781188 0.707106781185 0.0 
0.68454710593 0.72896862742 0.0 
0.661311865325 0.750111069629 0.0 
0.63742398975 0.770513242775 0.0 
0.612907053654 0.790155012375 0.0 
0.587785252294 0.809016994374 0.0 
0.562083377853 0.827080574274 0.0 
0.53582679498 0.844327925501 0.0 
0.509041415751 0.860742027003 0.0 
0.481753674103 0.876306680043 0.0 
0.45399049974 0.891006524188 0.0 
0.425779291566 0.904827052466 0.0 
0.397147890636 0.917754625684 0.0 
0.368124552685 0.929776485888 0.0 
0.338737920246 0.940880768954 0.0 
0.309016994376 0.951056516295 0.0 
0.27899110604 0.960293685677 0.0 
0.248689887165 0.968583161129 0.0 
0.218143241397 0.975916761939 0.0 
0.187381314586 0.982287250729 0.0 
0.15643446504 0.987688340595 0.0 
0.125333233564 0.992114701314 0.0 
0.0941083133186 0.995561964603 0.0 
0.0627905195293 0.998026728428 0.0 
0.031410759078 0.999506560366 0.0 
-0.0314107590779 0.999506560366 0.0 
-0.062790519529 0.998026728428 0.0 
-0.0941083133181 0.995561964603 0.0 
-0.125333233564 0.992114701315 0.0 
-0.15643446504 0.987688340595 0.0 
-0.187381314585 0.982287250729 0.0 
-0.218143241396 0.975916761939 0.0 
-0.248689887164 0.968583161129 0.0 
-0.278991106039 0.960293685677 0.0 
-0.309016994374 0.951056516295 0.0 
-0.338737920244 0.940880768955 0.0 
-0.368124552684 0.929776485889 0.0 
-0.397147890634 0.917754625684 0.0 
-0.425779291564 0.904827052467 0.0 
-0.453990499738 0.891006524189 0.0 
-0.481753674101 0.876306680045 0.0 
-0.509041415749 0.860742027005 0.0 
-0.535826794978 0.844327925503 0.0 
-0.562083377851 0.827080574275 0.0 
-0.587785252291 0.809016994376 0.0 
-0.612907053652 0.790155012377 0.0 
-0.637423989747 0.770513242777 0.0 
-0.661311865322 0.750111069632 0.0 
-0.684547105927 0.728968627423 0.0 
-0.707106781185 0.707106781188 0.0 
-0.72896862742 0.68454710593 0.0 
-0.750111069629 0.661311865325 0.0 
-0.770513242775 0.63742398975 0.0 
-0.790155012375 0.612907053654 0.0 
-0.809016994374 0.587785252294 0.0 
-0.827080574274 0.562083377853 0.0 
-0.844327925501 0.53582679498 0.0 
-0.860742027003 0.509041415751 0.0 
-0.876306680043 0.481753674103 0.0 
-0.891006524188 0.45399049974 0.0 
-0.904827052466 0.425779291566 0.0 
-0.917754625684 0.397147890636 0.0 
-0.929776485888 0.368124552685 0.0 
-0.940880768954 0.338737920246 0.0 
-0.951056516295 0.309016994376 0.0 
-0.960293685677 0.27899110604 0.0 
-0.968583161129 0.248689887165 0.0 
-0.975916761939 0.218143241397 0.0 
-0.982287250729 0.187381314586 0.0 
-0.987688340595 0.15643446504 0.0 
-0.992114701314 0.125333233564 0.0 
-0.995561964603 0.0941083133186 0.0 
-0.998026728428 0.0627905195293 0.0 
-0.999506560366 0.031410759078 0.0 
-0.999506560366 -0.0314107590779 0.0 
-0.998026728428 -0.062790519529 0.0 
-0.995561964603 -0.0941083133181 0.0 
-0.992114701315 -0.125333233564 0.0 
-0.987688340595 -0.15643446504 0.0 
-0.982287250729 -0.187381314585 0.0 
-0.975916761939 -0.218143241396 0.0 
-0.968583161129 -0.248689887164 0.0 
-0.960293685677 -0.278991106039 0.0 
-0.951056516295 -0.309016994374 0.0 
-0.940880768955 -0.338737920244 0.0 
-0.929776485889 -0.368124552684 0.0 
-0.917754625684 -0.397147890634 0.0 
-0.904827052467 -0.425779291564 0.0 
-0.891006524189 -0.453990499738 0.0 
-0.876306680045 -0.481753674101 0.0 
-0.860742027005 -0.509041415749 0.0 
-0.844327925503 -0.535826794978 0.0 
-0.827080574275 -0.562083377851 0.0 
-0.809016994376 -0.587785252291 0.0 
-0.790155012377 -0.612907053652 0.0 
-0.770513242777 -0.637423989747 0.0 
-0.750111069632 -0.661311865322 0.0 
-0.728968627423 -0.684547105927 0.0 
-0.707106781188 -0.707106781185 0.0 
-0.68454710593 -0.72896862742 0.0 
-0.661311865325 -0.750111069629 0.0 
-0.63742398975 -0.770513242775 0.0 
-0.612907053654 -0.790155012375 0.0 
-0.587785252294 -0.809016994374 0.0 
-0.562083377853 -0.827080574274 0.0 
-0.53582679498 -0.844327925501 0.0 
-0.509041415751 -0.860742027003 0.0 
-0.481753674103 -0.876306680043 0.0 
-0.45399049974 -0.891006524188 0.0 
-0.425779291566 -0.904827052466 0.0 
-0.397147890636 -0.917754625684 0.0 
-0.368124552685 -0.929776485888 0.0 
-0.338737920246 -0.940880768954 0.0 
-0.309016994376 -0.951056516295 0.0 
-0.27899110604 -0.960293685677 0.0 
-0.248689887165 -0.968583161129 0.0 
-0.218143241397 -0.975916761939 0.0 
-0.187381314586 -0.982287250729 0.0 
-0.15643446504 -0.987688340595 0.0 
-0.125333233564 -0.992114701314 0.0 
-0.0941083133186 -0.995561964603 0.0 
-0.0627905195293 -0.998026728428 0.0 
-0.031410759078 -0.999506560366 0.0 
0.0314107590779 -0.999506560366 0.0 
0.062790519529 -0.998026728428 0.0 
0.0941083133181 -0.995561964603 0.0 
0.125333233564 -0.992114701315 0.0 
0.15643446504 -0.987688340595 0.0 
0.187381314585 -0.982287250729 0.0 
0.218143241396 -0.975916761939 0.0 
0.248689887164 -0.968583161129 0.0 
0.278991106039 -0.960293685677 0.0 
0.309016994374 -0.951056516295 0.0 
0.338737920244 -0.940880768955 0.0 
0.368124552684 -0.929776485889 0.0 
0.397147890634 -0.917754625684 0.0 
0.425779291564 -0.904827052467 0.0 
0.453990499738 -0.891006524189 0.0 
0.481753674101 -0.876306680045 0.0 
0.509041415749 -0.860742027005 0.0 
0.535826794978 -0.844327925503 0.0 
0.562083377851 -0.827080574275 0.0 
0.587785252291 -0.809016994376 0.0 
0.612907053652 -0.790155012377 0.0 
0.637423989747 -0.770513242777 0.0 
0.661311865322 -0.750111069632 0.0 
0.684547105927 -0.728968627423 0.0 
0.707106781185 -0.707106781188 0.0 
0.72896862742 -0.68454710593 0.0 
0.750111069629 -0.661311865325 0.0 
0.770513242775 -0.63742398975 0.0 
0.790155012375 -0.612907053654 0.0 
0.809016994374 -0.587785252294 0.0 
0.827080574274 -0.562083377853 0.0 
0.844327925501 -0.53582679498 0.0 
0.860742027003 -0.509041415751 0.0 
0.876306680043 -0.481753674103 0.0 
0.891006524188 -0.45399049974 0.0 
0.904827052466 -0.425779291566 0.0 
0.917754625684 -0.397147890636 0.0 
0.929776485888 -0.368124552685 0.0 
0.940880768954 -0.338737920246 0.0 
0.951056516295 -0.309016994376 0.0 
0.960293685677 -0.27899110604 0.0 
0.968583161129 -0.248689887165 0.0 
0.975916761939 -0.218143241397 0.0 
0.982287250729 -0.187381314586 0.0 
0.987688340595 -0.15643446504 0.0 
0.992114701314 -0.125333233564 0.0 
0.995561964603 -0.0941083133186 0.0 
0.998026728428 -0.0627905195293 0.0 
0.999506560366 -0.031410759078 0.0 
2.9998355081 0.0314153523482 0.0 
2.99934205042 0.0628272596494 0.0 
2.9985196811 0.0942322772336 0.0 
2.9973684903 0.125626961187 0.0 
2.99588860426 0.157007868728 0.0 
2.99408018528 0.188371558587 0.0 
2.99194343167 0.219714591382 0.0 
2.98947857775 0.251033529996 0.0 
2.98668589381 0.282324939954 0.0 
2.9835656861 0.313585389802 0.0 
2.9801182968 0.344811451477 0.0 
2.97634410394 0.375999700692 0.0 
2.97224352141 0.407146717302 0.0 
2.96781699889 0.438249085686 0.0 
2.96306502179 0.469303395119 0.0 
2.95798811121 0.500306240147 0.0 
2.95258682391 0.531254220957 0.0 
2.94686175219 0.562143943756 0.0 
2.94081352387 0.592972021136 0.0 
2.9344428022 0.623735072452 0.0 
2.92775028582 0.654429724188 0.0 
2.92073670862 0.68505261033 0.0 
2.91340283973 0.715600372734 0.0 
2.90574948339 0.746069661493 0.0 
2.89777747887 0.776457135306 0.0 
2.88948770039 0.806759461844 0.0 
2.88088105703 0.836973318116 0.0 
2.8719584926 0.867095390831 0.0 
2.86272098555 0.897122376766 0.0 
2.85316954889 0.927050983122 0.0 
2.84330523003 0.956877927892 0.0 
2.83312911071 0.986599940213 0.0 
2.82264230686 1.01621376073 0.0 
2.81184596848 1.04571614196 0.0 
2.80074127949 1.07510384863 0.0 
2.78932945767 1.10437365805 0.0 
2.77761175443 1.13352236045 0.0 
2.76558945477 1.16254675935 0.0 
2.75326387705 1.1914436719 0.0 
2.74063637293 1.22020992922 0.0 
2.72770832714 1.24884237678 0.0 
2.7144811574 1.27733787469 0.0 
2.70095631421 1.30569329811 0.0 
2.68713528072 1.33390553755 0.0 
2.67301957257 1.36197149922 0.0 
2.6586107377 1.38988810536 0.0 
2.6439103562 1.4176522946 0.0 
2.62892004013 1.4452610223 0.0 
2.61364143336 1.47271126084 0.0 
2.59807621136 1.5 0.0 
2.58222608101 1.52712424725 0.0 
2.56609278048 1.55408102812 0.0 
2.54967807896 1.58086738649 0.0 
2.53298377651 1.60748038493 0.0 
2.51601170384 1.63391710504 0.0 
2.49876372213 1.66017464773 0.0 
2.48124172283 1.68625013355 0.0 
2.4634476274 1.71214070305 0.0 
2.44538338719 1.73784351702 0.0 
2.42705098313 1.76335575687 0.0 
2.40845242558 1.78867462489 0.0 
2.38958975408 1.81379734458 0.0 
2.37046503713 1.83872116096 0.0 
2.35108037198 1.86344334083 0.0 
2.33143788437 1.88796117315 0.0 
2.31153972833 1.91227196924 0.0 
2.29138808591 1.93637306317 0.0 
2.27098516696 1.96026181197 0.0 
2.25033320889 1.98393559597 0.0 
2.22943447644 2.00739181907 0.0 
2.20829126136 2.03062790904 0.0 
2.18690588227 2.05364131778 0.0 
2.1652806843 2.07642952161 0.0 
2.1434180389 2.09899002154 0.0 
2.12132034356 2.12132034356 0.0 
2.09899002154 2.14341803889 0.0 
2.07642952162 2.16528068429 0.0 
2.05364131779 2.18690588226 0.0 
2.03062790905 2.20829126136 0.0 
[...]
<PointData Scalars="solution">
<DataArray type="Float64" Name="Real part" format="ascii">
8.80763603649e-09
-5.14259239637e-08
-7.14005538251e-08
-5.14314753502e-08
-1.264932717e-07
-4.06305008187e-60
-8.82694599665e-60
-4.06376670996e-60
4.03638948766e-08
-3.88785310876e-07
-4.16638587058e-07
-9.68354785434e-08
-1.32085036323e-07
-9.5829645254e-08
-1.3857068992e-07
-1.11286393614e-07
-1.90865016404e-07
-8.43741310218e-08
-8.52252586578e-08
-9.51259633129e-08
-6.68544524416e-08
-3.41075849763e-07
-8.8958638709e-08
-3.32970313118e-08
-1.77788209407e-07
-5.81775886539e-08
-2.63311453078e-08
-8.22924474892e-08
-9.4703779566e-08
-1.11249786451e-08
-4.68635384e-08
-2.60693341726e-08
-1.85091426229e-08
-1.49852521355e-08
-4.70060523352e-08
-5.96311880317e-08
-2.57262637283e-08
-1.97988509761e-08
-3.59777973432e-08
-6.90200131053e-08
-2.64081117885e-08
-6.16381857322e-08
-2.87949102289e-08
-7.82955476149e-08
-1.12024265819e-07
-6.64176340781e-08
-7.52462969571e-08
-1.87277047773e-07
-8.52189399526e-08
-1.26124064895e-07
-3.76939091454e-07
-1.53204853301e-07
-7.04153291023e-08
-1.60393870705e-07
-1.52934157651e-07
-2.90199100467e-07
-1.70561594813e-07
-7.90581677607e-08
-2.21778245045e-07
-1.88659978552e-07
-9.1565998221e-09
-2.5740921589e-09
1.96518232824e-08
4.97555890648e-08
6.68463870286e-08
1.43154546185e-07
8.01033283625e-08
9.67908411902e-08
1.20074181221e-07
9.40495998694e-08
5.06624876854e-07
1.33295759716e-07
4.94983863282e-08
2.13697107282e-07
5.18314606606e-08
1.42744969358e-08
-4.61055390213e-08
-1.24659442102e-07
-3.23151085832e-08
-1.93527902065e-07
-1.29787265484e-07
-1.14962374381e-07
-9.82394913302e-08
-2.79736181367e-07
-3.17686142574e-07
-9.13480876838e-08
-5.62065373983e-08
-4.64402227992e-08
-4.023047149e-08
1.50799080295e-08
5.33690585592e-08
3.41223801229e-08
1.12741319597e-07
1.67665586134e-07
9.88156074459e-08
1.07234230692e-07
2.37862696782e-07
9.72799926798e-08
1.17528072815e-07
2.89262835483e-07
8.4885901392e-08
2.66045612086e-08
2.72655330074e-08
1.67795753247e-08
-7.73963703515e-08
-6.08883789747e-08
-2.59015812435e-08
-3.62432890023e-07
-4.16589544038e-07
-9.68807652694e-08
-1.32076727604e-07
-9.58309731918e-08
-1.38588502064e-07
-1.11284848494e-07
-1.90850318901e-07
-8.4379402098e-08
-8.52295549635e-08
-9.51391565719e-08
-6.68575875657e-08
-3.41125222795e-07
-8.89531044426e-08
-3.32991175334e-08
-1.77804368007e-07
-5.81700037545e-08
-2.6330446553e-08
-8.23005377347e-08
-9.47134053195e-08
-1.11247246459e-08
-4.68564312933e-08
-2.60661972266e-08
-1.8506072711e-08
-1.49862219178e-08
-4.70104177669e-08
-5.96183762444e-08
-2.5725728177e-08
-1.98011532619e-08
-3.5979727165e-08
-6.90251606765e-08
-2.64085645244e-08
-6.16463910657e-08
-2.87981717498e-08
-7.82988758911e-08
-1.12023020601e-07
-6.64082524572e-08
-7.52366485251e-08
-1.87253941218e-07
-8.52178148146e-08
-1.26120271136e-07
-3.77045214019e-07
-1.53202836722e-07
-7.04116023064e-08
-1.60403814858e-07
-1.52918236732e-07
-2.90156743812e-07
-1.70559997302e-07
-7.90623447315e-08
-2.21780261065e-07
-1.88624374333e-07
-9.15813345031e-09
-2.57454894492e-09
1.96520324821e-08
4.97605208954e-08
6.68412119568e-08
1.43131805443e-07
8.010463436e-08
9.67907704338e-08
1.20083456176e-07
9.40553057634e-08
5.06686723114e-07
1.33282563365e-07
4.94990529316e-08
2.13716936955e-07
5.18308886107e-08
1.4274421913e-08
-4.61121935411e-08
-1.24672664694e-07
-3.2316073245e-08
-1.9353704082e-07
-1.29796841798e-07
-1.14968882212e-07
-9.82345144035e-08
-2.79742893812e-07
-3.17725719245e-07
-9.13440251042e-08
-5.62006544465e-08
-4.64407704777e-08
-4.02265835536e-08
1.507934307e-08
5.33677385403e-08
3.41225145336e-08
1.1273428638e-07
1.67657462678e-07
9.88215593326e-08
1.0723712292e-07
2.3788885473e-07
9.72907054162e-08
1.17535276072e-07
2.89236421799e-07
8.48877352917e-08
2.66047845388e-08
2.72637352969e-08
1.68991113537e-08
-7.73019119819e-08
-7.87257538063e-08
-6.39692601166e-08
9.10920353669e-09
-1.09871148345e-09
-2.02027300819e-11
-7.13478212446e-12
5.76645095319e-12
-3.00320597059e-13
1.67938093925e-13
-8.9278515387e-15
1.41141109191e-15
3.4531463636e-16
-1.27745284323e-16
2.2759974611e-17
-6.2128862793e-18
2.99351102795e-19
2.16948337669e-20
-1.16754407888e-20
3.40072021492e-21
-5.19936240923e-22
-1.36490544399e-23
9.62374426767e-24
-3.56198955095e-25
-6.03009301979e-25
1.95175490952e-26
-9.36716626627e-27
1.44600354965e-27
-2.18801588415e-28
2.82149864036e-29
-3.69012741683e-30
7.04921623868e-32
-1.15416439723e-32
-3.5843237121e-33
4.91334018201e-34
-4.15335400521e-35
5.17885604396e-36
2.34440642779e-37
-7.6365143637e-38
3.31928024855e-38
-5.40347606486e-39
4.37150691725e-40
-1.81995081315e-40
6.12270842653e-41
-7.54110042771e-42
5.29719339278e-43
3.0392753036e-43
-2.45615792431e-44
3.71264238747e-45
-9.1744887024e-46
1.58035326786e-46
-3.45988308597e-47
-9.49472523011e-49
7.33554932389e-49
-1.63228203547e-49
3.25583098725e-50
-6.20902930418e-51
3.53010711685e-52
-6.6357992324e-54
-1.93494834413e-54
1.2438053053e-54
-6.16261989323e-55
-1.50663886044e-56
5.94359813275e-57
-2.54386959724e-57
1.89433368415e-58
-5.65685305595e-60
-2.47550687969e-60
1.13411026264e-60
-5.71428774776e-61
-9.29657890532e-61
-6.91352688792e-61
8.7086323612e-62
2.96412939737e-61
4.87614270583e-61
-3.14366304574e-61
-7.1386525309e-61
-1.67677572482e-61
-7.53998231105e-61
-6.29581596237e-61
7.41044134034e-63
7.23434442886e-62
2.27992474361e-61
1.51209684571e-62
-9.30754700467e-62
1.84977271306e-61
-3.49725818613e-61
-1.23951445244e-60
-2.3231617758e-61
3.79107061116e-61
-3.70096784328e-62
3.28012858451e-62
5.56429865999e-62
-2.63143616047e-62
8.81347451154e-62
-2.83973343283e-61
6.00743766904e-62
3.54141392795e-61
-6.97456074322e-60
-1.57351429349e-59
-4.24850983365e-60
-6.73514515341e-61
-1.18100296452e-60
6.25060832762e-60
5.36589985288e-60
-9.23562078596e-60
-5.38119395e-59
1.83226582167e-59
9.70206054496e-60
4.16463922255e-59
3.10790443235e-59
-1.09146291329e-58
-5.26479722598e-60
1.21326503478e-59
-4.89612355547e-59
-1.57242551357e-58
-2.81902519786e-59
2.19224608698e-59
3.28283838605e-59
7.3502973672e-60
1.72664009378e-59
-1.58719798661e-59
2.42599002888e-59
1.44458250587e-60
4.4727678545e-58
-8.82082619633e-58
-5.0194235344e-59
7.67365082831e-58
3.72581405247e-58
8.17760833598e-59
3.0589383928e-59
-2.15414265013e-59
-5.50169403109e-60
5.17700523322e-60
4.293380134e-60
1.23181023862e-59
-3.27832910047e-60
8.87206798028e-60
-1.1611022698e-59
-1.14393531556e-60
1.87376926536e-59
3.32770455819e-60
5.53012036096e-60
2.22768538198e-60
-2.6124578525e-60
-5.30770835403e-60
-3.64681040996e-60
-2.33204743731e-61
1.52578058656e-60
5.56379546548e-60
-3.81713344631e-61
-1.82639974747e-60
-5.13487270922e-61
-1.92780942948e-60
-3.9675801306e-60
-5.24859940932e-60
-4.84427118991e-60
-2.4454620335e-60
-1.15727717118e-60
3.69327805735e-61
-4.44424731841e-61
4.28144129942e-62
3.08095720901e-61
-5.19765560098e-61
-2.89103336242e-61
-8.37972181384e-62
-6.46422827396e-62
5.22393685343e-62
-1.41806627886e-61
1.29247976542e-61
-1.42580386921e-60
3.29806881787e-60
9.51540077788e-61
-2.04525701097e-60
-4.67519413482e-61
-1.21959620872e-59
-3.52536238529e-60
-1.53012236361e-61
-9.09563088775e-62
4.50449591739e-62
2.15283301346e-62
1.23201802276e-61
5.16743513606e-62
6.41589166417e-61
4.49305102148e-61
-6.27874611158e-62
8.8892801247e-61
-5.51157595791e-60
6.05987427078e-60
9.89996054601e-60
-4.8074069481e-60
6.13412735628e-60
-2.83820661963e-59
-1.97162355895e-60
8.54158023086e-60
1.47889377957e-59
8.48169042801e-59
-2.66114107043e-59
-4.0985801987e-59
-4.01104636567e-59
-2.22167626539e-59
4.34825053805e-60
6.03309175908e-60
-3.14078895562e-62
-1.66843447976e-60
4.55636667417e-61
5.07952491522e-60
1.0196398634e-59
-5.41093137035e-60
1.98023815579e-59
6.9171434791e-60
2.46735984257e-60
-1.00808100601e-61
-1.59316235059e-61
-1.20497614288e-60
-6.43722145066e-62
-6.71645597274e-61
-3.77349908564e-61
-9.23974974559e-61
-4.90104545135e-60
-3.57515710342e-60
6.03120887348e-61
1.8150571071e-60
2.25622140076e-60
-1.45712420826e-60
-3.37840984623e-60
-7.74392823543e-61
-3.61576899663e-60
-3.10084756218e-60
7.90295932804e-62
2.72912846585e-61
8.82875171118e-61
-1.40867714184e-61
-2.61363646884e-61
2.32042264156e-60
1.86955513424e-60
-1.70769897763e-60
-7.2580743916e-61
4.02646434668e-61
2.57352892755e-61
-4.33415204098e-62
-1.5434632329e-61
5.22087195566e-61
1.03124210849e-62
8.30676055654e-62
-1.59709103717e-62
-2.62833174533e-61
4.36086552134e-60
9.89472504014e-60
2.92278127878e-60
4.88837905564e-61
1.00969144613e-60
-5.00486477039e-60
-4.28764461548e-60
7.35543097593e-60
4.23137018782e-59
-1.42786133856e-59
-7.64612656108e-60
-3.28075417841e-59
-2.45730143511e-59
8.57235596891e-59
4.11036388938e-60
-9.49352414028e-60
3.85222059437e-59
1.23893646682e-58
2.22168618374e-59
-1.72716390383e-59
-2.60444464758e-59
-5.76387810019e-60
-1.38584315149e-59
1.28163820627e-59
-1.96303291455e-59
-1.14752482983e-60
-3.6303724725e-58
7.1545900631e-58
4.05588900276e-59
-6.21936362654e-58
-3.00547145458e-58
-6.45109003476e-59
-2.41149626182e-59
1.86283062736e-59
5.49074221241e-60
-5.32880369033e-60
-8.77942951235e-60
-1.30538001917e-59
1.7792176623e-59
3.46273745648e-60
-1.25192160121e-59
-1.96484832524e-60
2.35170442504e-59
5.85605178256e-60
9.16247789805e-60
3.8976141951e-60
-4.52944455626e-60
-8.75280927413e-60
-6.0842932738e-60
-4.10716796329e-61
1.93841159011e-60
8.81464053211e-60
-7.65428494983e-61
-4.4550830754e-60
-1.12274660946e-60
-5.58655300652e-60
-1.1739712224e-59
-1.5500907536e-59
-1.44315630819e-59
-5.33867589071e-60
-2.65982418291e-60
2.09433878593e-60
-1.95817199219e-60
-1.29422934413e-59
1.68432958226e-59
4.80980605574e-60
1.05249059741e-59
-1.40672062051e-60
-5.74571523168e-61
-8.97132306013e-61
4.22466342649e-61
-9.60187138709e-62
2.73256891436e-60
-5.58066177213e-60
-1.25505483531e-60
3.06744060056e-60
8.08409204734e-61
2.17649166153e-59
6.32746504796e-60
5.84607917584e-61
1.36661033189e-61
-8.79176039367e-61
5.96601673878e-61
-8.84058259458e-61
4.44625529437e-62
-4.17871945529e-61
-6.03340932852e-62
4.92774981532e-61
-2.2547632483e-60
6.06467616328e-60
-6.33145000581e-60
-9.36907773577e-60
3.64646363165e-60
-7.15153219133e-60
2.15107349675e-59
1.54840590901e-60
-7.09928192075e-60
-1.15977064029e-59
-6.89124518617e-59
2.15608181424e-59
3.34111892153e-59
3.23891706077e-59
1.79973354917e-59
-3.41934026397e-60
-5.30036542214e-60
-4.00634815759e-61
1.42768562894e-60
-2.43131423731e-61
-4.36114994177e-60
-8.01172356145e-60
4.06504625352e-60
-1.46268875109e-59
-5.61641940865e-60
-1.20737957524e-60
2.6068412289e-61
2.64707398663e-61
1.09429025353e-60
-5.40336332932e-62
-1.10564159093e-61
-2.29910300435e-61
-2.28588034675e-62
-9.36498818309e-61
-6.93315662554e-61
8.86590892966e-62
2.96242754037e-61
4.87718423238e-61
-3.14542965894e-61
-7.14096669342e-61
-1.67579594316e-61
-7.53796841701e-61
-6.29381879363e-61
7.34868346053e-63
7.24051392804e-62
2.28159696587e-61
1.52244054871e-62
-9.30377102666e-62
1.85357875535e-61
-3.48242574868e-61
-1.23748169996e-60
-2.32110619006e-61
3.78525640924e-61
-3.68928309962e-62
3.28561139193e-62
5.55469421805e-62
-2.62028397904e-62
8.81779964906e-62
-2.83998448296e-61
6.00090371532e-62
3.54106045587e-61
-6.97566777211e-60
-1.57393123542e-59
-4.24743445829e-60
-6.7330558557e-61
-1.18031183803e-60
6.25117192467e-60
5.36612123993e-60
-9.2367734538e-60
-5.38402546926e-59
1.83381131221e-59
9.70474941661e-60
4.16769233554e-59
3.11189468134e-59
-1.09136449357e-58
-5.26269243222e-60
1.21359773318e-59
-4.8951637409e-59
-1.57239381482e-58
-2.81865415062e-59
2.19165695157e-59
3.28304192173e-59
7.34695262769e-60
1.72752282631e-59
-1.58596190212e-59
2.42487400026e-59
1.4281478347e-60
4.4720838702e-58
-8.81987546735e-58
-5.01646729968e-59
7.67234905494e-58
3.72466535012e-58
8.17145241077e-59
3.05753778581e-59
-2.1561841787e-59
-5.51380318612e-60
5.18570157497e-60
4.28409671376e-60
1.23419109986e-59
-3.29791190763e-60
8.87930069938e-60
-1.16086891401e-59
-1.14268718988e-60
1.87329985751e-59
3.32649550895e-60
5.52912273108e-60
2.22773355413e-60
-2.61257955006e-60
-5.30916674039e-60
-3.64790746513e-60
-2.32927231342e-61
1.52685905204e-60
5.56648057401e-60
-3.81853994261e-61
-1.82655209142e-60
-5.13425454546e-61
-1.92836518122e-60
-3.96886130253e-60
-5.24910817353e-60
-4.84501209797e-60
-2.44467915098e-60
-1.15683386611e-60
3.69392494117e-61
-4.44541504402e-61
4.42245794084e-62
3.06695527294e-61
-5.20692537628e-61
-2.91572051782e-61
-8.30506461398e-62
-6.34660352937e-62
5.16426851405e-62
-1.39965970073e-61
1.29368976624e-61
-1.42136230005e-60
3.29792073185e-60
9.5229215664e-61
-2.04903732966e-60
-4.69870069876e-61
-1.22230322305e-59
-3.53229389406e-60
-1.53914152873e-61
-9.10049210224e-62
4.73251278119e-62
1.99770058505e-62
1.24863279344e-61
5.14183759013e-62
6.41343139866e-61
4.48406148618e-61
-6.40388330081e-62
8.90683788777e-61
-5.50908470654e-60
6.05565625911e-60
9.8936111707e-60
-4.80397125927e-60
6.13236903458e-60
-2.83658126127e-59
-1.9692980661e-60
8.53927683836e-60
1.47819090498e-59
8.47523359995e-59
-2.6587209002e-59
-4.09569102717e-59
-4.00864915145e-59
-2.22099601473e-59
4.34607150985e-60
6.03376318311e-60
-3.27305923733e-62
-1.66826224155e-60
4.53783038817e-61
5.07403246307e-60
1.01921748523e-59
-5.40753677706e-60
1.97855821818e-59
6.87147932484e-60
2.47077119318e-60
-9.3871144845e-62
-1.59811007312e-61
-1.20667150668e-60
-6.33035614009e-62
-6.71401625108e-61
-3.78317681161e-61
-9.24136459519e-61
-4.9005836665e-60
-3.5753186836e-60
6.02791944087e-61
1.81388308514e-60
2.25561093143e-60
-1.45616380834e-60
-3.37797066077e-60
-7.74947428399e-61
-3.61557193073e-60
-3.10006509434e-60
8.03147074419e-62
2.71486121966e-61
8.78815704945e-61
-1.40230975339e-61
-2.76638150221e-61
2.40776170143e-60
1.42193538276e-60
2.20243989247e-59
-2.79966435354e-59
-2.93103739216e-59
8.15897898665e-58
-4.64500865215e-57
3.06841508531e-56
-8.93679990628e-56
1.83282318089e-55
-8.32114811425e-55
1.75681225494e-54
1.55565068522e-53
-1.13749110829e-51
1.84412281559e-51
-1.28495224929e-50
-2.77590166168e-50
-8.24373377954e-49
7.51115197596e-48
-4.85770519836e-47
2.18379453772e-46
-2.17514719256e-45
-1.22045110868e-44
2.7237670541e-43
-1.53196829398e-43
-5.75384665858e-42
1.46090720133e-39
-2.70450001e-39
6.02345102413e-39
-2.36717893921e-38
3.44626839907e-38
9.89181661313e-37
-8.98272909287e-36
2.8619671714e-34
-2.15509978451e-33
5.85416066217e-33
-2.89554708436e-31
5.12995985422e-31
-1.79806440263e-30
-1.77422734312e-30
4.83393504562e-29
1.59967885129e-29
-6.29453533231e-28
1.32428726415e-26
-1.32281999564e-25
1.8235885269e-24
-4.00075167434e-24
1.21329387171e-23
-5.03402236091e-24
-1.9886557603e-21
1.009853953e-20
-3.28048143473e-20
8.38191907921e-20
-1.64188606551e-19
-3.08309675732e-18
1.22986494814e-17
4.76187286751e-17
-8.12181999519e-16
2.12047579524e-14
-4.47639861915e-14
2.84076559295e-13
1.57143928604e-12
-1.36860572019e-11
1.03913979338e-10
-9.46036429143e-10
8.44183439097e-09
-3.31547094423e-35
2.298839615e-35
-3.45374002059e-34
2.30578109557e-35
5.97973022528e-34
1.23199808386e-34
5.97824092838e-34
1.23192691692e-34
9.39496513626e-37
-7.23140041819e-37
-7.23181368406e-37
9.39657907079e-37
1.37298557173e-39
-5.32267492548e-40
-5.32778928087e-40
1.2291221949e-39
1.1203184328e-23
-8.78480956011e-24
1.12286232923e-23
-8.78686085849e-24
-1.16099549395e-22
1.49896672946e-22
-1.16118388015e-22
1.49921924753e-22
2.52870029633e-45
-5.03703922242e-29
3.19886759175e-44
2.5082005619e-45
-2.80602942037e-46
7.51349839845e-46
7.48096546838e-46
-2.79877886941e-46
-1.17579731842e-23
-2.83357219728e-23
-2.83447414274e-23
-1.17723244149e-23
-1.02091538967e-45
5.54427885732e-46
5.54037303899e-46
-1.23445659507e-27
-9.09554668016e-46
1.21273385837e-45
1.21222636724e-45
-9.09467219248e-46
2.26942025352e-22
3.04774803933e-22
3.04785958722e-22
2.26961821593e-22
7.25899612151e-48
-4.56199526318e-37
-5.80566756609e-48
7.25806682838e-48
3.29997761937e-50
2.27739435052e-50
3.30726109739e-50
-1.37796070926e-19
-2.06796663415e-48
-4.33848166943e-49
-4.33747020058e-49
-2.06816528673e-48
3.26411011669e-19
6.23382284517e-19
4.01696841997e-19
6.2334848096e-19
-3.26406301365e-32
4.55264952481e-32
-3.26566035182e-32
4.55798172903e-32
-2.27613269001e-34
-1.37420193651e-34
-2.27534624246e-34
-1.37445316543e-34
-5.00403109976e-35
1.31064891263e-34
-6.73269026116e-35
1.31103579669e-34
-6.17666895169e-50
5.70993898971e-51
5.55822799478e-51
-1.06796760319e-33
-1.84296343392e-33
1.44081820355e-33
1.44062225634e-33
-1.84235091691e-33
4.45762928806e-50
-1.04245806514e-46
-4.04894002506e-50
4.45420890171e-50
-2.08838109229e-49
2.56875825905e-49
2.00611765875e-43
2.57037773133e-49
-6.12797661207e-18
5.01407642847e-18
5.01515730077e-18
-6.12757123711e-18
3.83463569825e-29
-5.47695766291e-29
3.83268068547e-29
-5.47670827798e-29
1.29204712932e-16
-1.79962279931e-16
-1.79969030661e-16
1.29209834838e-16
1.24399412839e-16
1.47939566837e-17
1.47729281594e-17
1.24375171144e-16
2.57665216573e-27
3.53505994456e-27
2.9923013984e-27
3.53468938747e-27
1.46608171554e-26
2.10482528946e-27
2.10451655893e-27
1.466355562e-26
-1.81612335053e-50
-1.10310908314e-28
1.4721931801e-50
-1.81631157036e-50
-2.34801101354e-53
1.04407116753e-21
-5.17895703285e-53
-2.34842522301e-53
5.56013795001e-53
1.06599356627e-53
1.06464937156e-53
5.56512929313e-53
1.80437350164e-41
4.12467159495e-28
4.42100938173e-41
1.80419498022e-41
-8.35865425023e-43
-5.56656556592e-42
-5.56697447818e-42
-8.35586701594e-43
-1.79805112154e-27
-2.09115057578e-27
-4.70238173431e-27
-4.69987916741e-27
3.48592562849e-15
3.48662927265e-15
-4.83047374715e-15
-4.82878517306e-15
9.35325766561e-31
-1.19012433214e-30
-1.19099394259e-30
9.35305310062e-31
-4.05676286086e-52
-1.10634065454e-51
-4.0568447655e-52
3.17495209399e-18
-8.03836469246e-54
-4.70542752865e-54
-4.71256298306e-54
-7.95323978699e-54
-6.70602113717e-42
4.57993670325e-42
4.58357586599e-42
-6.70717002133e-42
-5.61002507275e-38
6.87283581852e-38
-5.60730652844e-38
6.87024524856e-38
-4.03697905768e-41
-3.15184425604e-36
3.31645090305e-41
-4.03924615281e-41
-8.99215129952e-53
5.78358250855e-53
5.77262070169e-53
9.68730323533e-27
1.73001536631e-41
4.28942827841e-41
1.73040856789e-41
-2.26011796173e-27
1.34661284165e-15
7.42361263577e-16
7.41941292801e-16
1.34480377409e-15
6.12389735863e-25
-4.84223231563e-25
-4.84271025227e-25
6.12113196581e-25
2.42699166346e-40
-1.85185046515e-40
-1.84927485406e-40
1.74549646332e-35
1.13487303055e-52
3.00293281835e-50
-7.97870266475e-53
1.13411982601e-52
-2.1467758017e-40
2.70167369481e-40
2.7009378237e-40
-2.14642943319e-40
-2.23932293454e-54
1.52563690026e-55
1.52416075472e-55
-4.84017143507e-54
-1.10002464215e-43
-2.80240774687e-43
-2.80273022268e-43
-1.09963757827e-43
-2.10680024107e-31
1.68935669848e-31
1.68966701907e-31
-2.10748009731e-31
-4.5593805239e-15
-3.51654616213e-15
-3.51585316405e-15
-4.55883615361e-15
-1.46479877931e-53
7.54286536512e-41
1.15143496863e-53
-1.46283256112e-53
-2.94579860034e-29
4.96612082074e-29
4.9666376044e-29
-2.94337496424e-29
-8.81031259431e-55
4.58829176307e-55
4.57222736685e-55
1.22372962433e-36
-1.27125336651e-14
-5.82619671718e-15
-5.8248289333e-15
-1.27168863209e-14
3.21739912353e-33
2.50087075161e-32
3.21331519664e-33
2.50192903424e-32
5.2216473361e-43
-6.208592815e-43
-4.1142942369e-43
5.22252044086e-43
3.64619098765e-47
-8.02949128963e-46
-8.03608777402e-46
8.20297422612e-39
-9.37671727867e-54
2.31815436438e-34
7.41007875591e-54
-9.36869482146e-54
2.49752090212e-54
4.59763417692e-55
4.5996408431e-55
2.49833972936e-54
3.85620152394e-54
4.94093844529e-54
3.85639853571e-54
-1.10997188283e-15
-1.82619231272e-29
-3.43059651815e-29
-3.42986734925e-29
-1.82739023401e-29
-7.97517623878e-39
-1.0758397946e-39
-1.07614272524e-39
-7.97195996328e-39
1.19740305887e-34
-1.04877758902e-34
1.19659579567e-34
-1.04855763541e-34
2.12222101025e-14
-4.25182659975e-14
-5.20441576958e-14
-4.25518445625e-14
7.29627923569e-40
-7.05080228711e-40
7.28684558594e-40
3.84542196215e-32
-2.31594926047e-47
6.09224743868e-47
-2.31994474003e-47
-2.32182797081e-24
-3.11477673032e-46
-5.45571958169e-47
-5.46115272359e-47