<VTKFile type="UnstructuredGrid" version="1.0" byte_order="LittleEndian" header_type="UInt64">
<UnstructuredGrid>
<Piece NumberOfPoints="8616" NumberOfCells="16832">
<Points>
<DataArray NumberOfComponents="3" type="Float64">
1.0 0.0 0.0 
0.0 1.0 0.0 
-1.0 0.0 0.0 
0.0 -1.0 0.0 
3.0 0.0 0.0 
0.0 3.0 0.0 
-3.0 0.0 0.0 
0.0 -3.0 0.0 
0.998026728428 0.062790519529 0.0 
0.992114701315 0.125333233564 0.0 
0.982287250729 0.187381314585 0.0 
0.968583161129 0.248689887164 0.0 
0.951056516295 0.309016994374 0.0 
0.929776485889 0.368124552684 0.0 
0.904827052467 0.425779291564 0.0 
0.876306680045 0.481753674101 0.0 
0.844327925503 0.535826794978 0.0 
0.809016994376 0.587785252291 0.0 
0.770513242777 0.637423989747 0.0 
0.728968627423 0.684547105927 0.0 
0.68454710593 0.72896862742 0.0 
0.63742398975 0.770513242775 0.0 
0.587785252294 0.809016994374 0.0 
0.53582679498 0.844327925501 0.0 
0.481753674103 0.876306680043 0.0 
0.425779291566 0.904827052466 0.0 
0.368124552685 0.929776485888 0.0 
0.309016994376 0.951056516295 0.0 
0.248689887165 0.968583161129 0.0 
0.187381314586 0.982287250729 0.0 
0.125333233564 0.992114701314 0.0 
0.0627905195293 0.998026728428 0.0 
-0.062790519529 0.998026728428 0.0 
-0.125333233564 0.992114701315 0.0 
-0.187381314585 0.982287250729 0.0 
-0.248689887164 0.968583161129 0.0 
-0.309016994374 0.951056516295 0.0 
-0.368124552684 0.929776485889 0.0 
-0.425779291564 0.904827052467 0.0 
-0.481753674101 0.876306680045 0.0 
-0.535826794978 0.844327925503 0.0 
-0.587785252291 0.809016994376 0.0 
-0.637423989747 0.770513242777 0.0 
-0.684547105927 0.728968627423 0.0 
-0.72896862742 0.68454710593 0.0 
-0.770513242775 0.63742398975 0.0 
-0.809016994374 0.587785252294 0.0 
-0.844327925501 0.53582679498 0.0 
-0.876306680043 0.481753674103 0.0 
-0.904827052466 0.425779291566 0.0 
-0.929776485888 0.368124552685 0.0 
-0.951056516295 0.309016994376 0.0 
-0.968583161129 0.248689887165 0.0 
-0.982287250729 0.187381314586 0.0 
-0.992114701314 0.125333233564 0.0 
-0.998026728428 0.0627905195293 0.0 
-0.998026728428 -0.062790519529 0.0 
-0.992114701315 -0.125333233564 0.0 
-0.982287250729 -0.187381314585 0.0 
-0.968583161129 -0.248689887164 0.0 
-0.951056516295 -0.309016994374 0.0 
-0.929776485889 -0.368124552684 0.0 
-0.904827052467 -0.425779291564 0.0 
-0.876306680045 -0.481753674101 0.0 
-0.844327925503 -0.535826794978 0.0 
-0.809016994376 -0.587785252291 0.0 
-0.770513242777 -0.637423989747 0.0 
-0.728968627423 -0.684547105927 0.0 
-0.68454710593 -0.72896862742 0.0 
-0.63742398975 -0.770513242775 0.0 
-0.587785252294 -0.809016994374 0.0 
-0.53582679498 -0.844327925501 0.0 
-0.481753674103 -0.876306680043 0.0 
-0.425779291566 -0.904827052466 0.0 
-0.368124552685 -0.929776485888 0.0 
-0.309016994376 -0.951056516295 0.0 
-0.248689887165 -0.968583161129 0.0 
-0.187381314586 -0.982287250729 0.0 
-0.125333233564 -0.992114701314 0.0 
-0.0627905195293 -0.998026728428 0.0 
0.062790519529 -0.998026728428 0.0 
0.125333233564 -0.992114701315 0.0 
0.187381314585 -0.982287250729 0.0 
0.248689887164 -0.968583161129 0.0 
0.309016994374 -0.951056516295 0.0 
0.368124552684 -0.929776485889 0.0 
0.425779291564 -0.904827052467 0.0 
0.481753674101 -0.876306680045 0.0 
0.535826794978 -0.844327925503 0.0 
0.587785252291 -0.809016994376 0.0 
0.637423989747 -0.770513242777 0.0 
0.684547105927 -0.728968627423 0.0 
0.72896862742 -0.68454710593 0.0 
0.770513242775 -0.63742398975 0.0 
0.809016994374 -0.587785252294 0.0 
0.844327925501 -0.53582679498 0.0 
0.876306680043 -0.481753674103 0.0 
0.904827052466 -0.425779291566 0.0 
0.929776485888 -0.368124552685 0.0 
0.951056516295 -0.309016994376 0.0 
0.968583161129 -0.248689887165 0.0 
0.982287250729 -0.187381314586 0.0 
0.992114701314 -0.125333233564 0.0 
0.998026728428 -0.0627905195293 0.0 
2.99934205042 0.0628272596494 0.0 
2.9973684903 0.125626961187 0.0 
2.99408018528 0.188371558587 0.0 
2.98947857775 0.251033529996 0.0 
2.9835656861 0.313585389802 0.0 
2.97634410394 0.375999700692 0.0 
2.96781699889 0.438249085686 0.0 
2.95798811121 0.500306240147 0.0 
2.94686175219 0.562143943756 0.0 
2.9344428022 0.623735072452 0.0 
2.92073670862 0.68505261033 0.0 
2.90574948339 0.746069661493 0.0 
2.88948770039 0.806759461844 0.0 
2.8719584926 0.867095390831 0.0 
2.85316954889 0.927050983122 0.0 
2.83312911071 0.986599940213 0.0 
2.81184596848 1.04571614196 0.0 
2.78932945767 1.10437365805 0.0 
2.76558945477 1.16254675935 0.0 
2.74063637293 1.22020992922 0.0 
2.7144811574 1.27733787469 0.0 
2.68713528072 1.33390553755 0.0 
2.6586107377 1.38988810536 0.0 
2.62892004013 1.4452610223 0.0 
2.59807621136 1.5 0.0 
2.56609278048 1.55408102812 0.0 
2.53298377651 1.60748038493 0.0 
2.49876372213 1.66017464773 0.0 
2.4634476274 1.71214070305 0.0 
2.42705098313 1.76335575687 0.0 
2.38958975408 1.81379734458 0.0 
2.35108037198 1.86344334083 0.0 
2.31153972833 1.91227196924 0.0 
2.27098516696 1.96026181197 0.0 
2.22943447644 2.00739181907 0.0 
2.18690588227 2.05364131778 0.0 
2.1434180389 2.09899002154 0.0 
2.09899002154 2.14341803889 0.0 
2.05364131779 2.18690588226 0.0 
2.00739181908 2.22943447643 0.0 
1.96026181197 2.27098516695 0.0 
1.91227196925 2.31153972832 0.0 
1.86344334084 2.35108037197 0.0 
1.81379734459 2.38958975407 0.0 
1.76335575688 2.42705098312 0.0 
1.71214070306 2.4634476274 0.0 
1.66017464773 2.49876372213 0.0 
1.60748038494 2.5329837765 0.0 
1.55408102812 2.56609278048 0.0 
1.5 2.59807621135 0.0 
1.44526102231 2.62892004013 0.0 
1.38988810536 2.65861073769 0.0 
1.33390553756 2.68713528072 0.0 
1.2773378747 2.7144811574 0.0 
1.22020992923 2.74063637293 0.0 
1.16254675936 2.76558945476 0.0 
1.10437365806 2.78932945766 0.0 
1.04571614197 2.81184596847 0.0 
0.986599940218 2.83312911071 0.0 
0.927050983127 2.85316954888 0.0 
0.867095390835 2.8719584926 0.0 
0.806759461847 2.88948770039 0.0 
0.746069661496 2.90574948339 0.0 
0.685052610333 2.92073670862 0.0 
0.623735072454 2.9344428022 0.0 
0.562143943758 2.94686175219 0.0 
0.500306240149 2.95798811121 0.0 
0.438249085688 2.96781699889 0.0 
0.375999700693 2.97634410394 0.0 
0.313585389803 2.9835656861 0.0 
0.251033529997 2.98947857775 0.0 
0.188371558588 2.99408018528 0.0 
0.125626961187 2.9973684903 0.0 
0.0628272596496 2.99934205042 0.0 
-0.0628272596494 2.99934205042 0.0 
-0.125626961187 2.9973684903 0.0 
-0.188371558587 2.99408018528 0.0 
-0.251033529996 2.98947857775 0.0 
-0.313585389802 2.9835656861 0.0 
-0.375999700692 2.97634410394 0.0 
-0.438249085686 2.96781699889 0.0 
-0.500306240147 2.95798811121 0.0 
-0.562143943756 2.94686175219 0.0 
-0.623735072452 2.9344428022 0.0 
-0.68505261033 2.92073670862 0.0 
-0.746069661493 2.90574948339 0.0 
-0.806759461844 2.88948770039 0.0 
-0.867095390831 2.8719584926 0.0 
-0.927050983122 2.85316954889 0.0 
-0.986599940213 2.83312911071 0.0 
-1.04571614196 2.81184596848 0.0 
-1.10437365805 2.78932945767 0.0 
-1.16254675935 2.76558945477 0.0 
-1.22020992922 2.74063637293 0.0 
-1.27733787469 2.7144811574 0.0 
-1.33390553755 2.68713528072 0.0 
-1.38988810536 2.6586107377 0.0 
-1.4452610223 2.62892004013 0.0 
-1.5 2.59807621136 0.0 
-1.55408102812 2.56609278048 0.0 
-1.60748038493 2.53298377651 0.0 
-1.66017464773 2.49876372213 0.0 
-1.71214070305 2.4634476274 0.0 
-1.76335575687 2.42705098313 0.0 
-1.81379734458 2.38958975408 0.0 
-1.86344334083 2.35108037198 0.0 
-1.91227196924 2.31153972833 0.0 
-1.96026181197 2.27098516696 0.0 
-2.00739181907 2.22943447644 0.0 
-2.05364131778 2.18690588227 0.0 
-2.09899002154 2.1434180389 0.0 
-2.14341803889 2.09899002154 0.0 
-2.18690588226 2.05364131779 0.0 
-2.22943447643 2.00739181908 0.0 
-2.27098516695 1.96026181197 0.0 
-2.31153972832 1.91227196925 0.0 
-2.35108037197 1.86344334084 0.0 
-2.38958975407 1.81379734459 0.0 
-2.42705098312 1.76335575688 0.0 
-2.4634476274 1.71214070306 0.0 
-2.49876372213 1.66017464773 0.0 
-2.5329837765 1.60748038494 0.0 
-2.56609278048 1.55408102812 0.0 
-2.59807621135 1.5 0.0 
-2.62892004013 1.44526102231 0.0 
-2.65861073769 1.38988810536 0.0 
-2.68713528072 1.33390553756 0.0 
-2.7144811574 1.2773378747 0.0 
-2.74063637293 1.22020992923 0.0 
-2.76558945476 1.16254675936 0.0 
-2.78932945766 1.10437365806 0.0 
-2.81184596847 1.04571614197 0.0 
-2.83312911071 0.986599940218 0.0 
-2.85316954888 0.927050983127 0.0 
-2.8719584926 0.867095390835 0.0 
-2.88948770039 0.806759461847 0.0 
-2.90574948339 0.746069661496 0.0 
-2.92073670862 0.685052610333 0.0 
-2.9344428022 0.623735072454 0.0 
-2.94686175219 0.562143943758 0.0 
-2.95798811121 0.500306240149 0.0 
-2.96781699889 0.438249085688 0.0 
-2.97634410394 0.375999700693 0.0 
-2.9835656861 0.313585389803 0.0 
-2.98947857775 0.251033529997 0.0 
-2.99408018528 0.188371558588 0.0 
-2.9973684903 0.125626961187 0.0 
-2.99934205042 0.0628272596496 0.0 
-2.99934205042 -0.0628272596494 0.0 
-2.9973684903 -0.125626961187 0.0 
-2.99408018528 -0.188371558587 0.0 
-2.98947857775 -0.251033529996 0.0 
-2.9835656861 -0.313585389802 0.0 
-2.97634410394 -0.375999700692 0.0 
-2.96781699889 -0.438249085686 0.0 
-2.95798811121 -0.500306240147 0.0 
-2.94686175219 -0.562143943756 0.0 
-2.9344428022 -0.623735072452 0.0 
-2.92073670862 -0.68505261033 0.0 
-2.90574948339 -0.746069661493 0.0 
-2.88948770039 -0.806759461844 0.0 
-2.8719584926 -0.867095390831 0.0 
-2.85316954889 -0.927050983122 0.0 
-2.83312911071 -0.986599940213 0.0 
-2.81184596848 -1.04571614196 0.0 
-2.78932945767 -1.10437365805 0.0 
-2.76558945477 -1.16254675935 0.0 
-2.74063637293 -1.22020992922 0.0 
-2.7144811574 -1.27733787469 0.0 
-2.68713528072 -1.33390553755 0.0 
-2.6586107377 -1.38988810536 0.0 
-2.62892004013 -1.4452610223 0.0 
-2.59807621136 -1.5 0.0 
-2.56609278048 -1.55408102812 0.0 
-2.53298377651 -1.60748038493 0.0 
-2.49876372213 -1.66017464773 0.0 
-2.4634476274 -1.71214070305 0.0 
-2.42705098313 -1.76335575687 0.0 
-2.38958975408 -1.81379734458 0.0 
-2.35108037198 -1.86344334083 0.0 
-2.31153972833 -1.91227196924 0.0 
-2.27098516696 -1.96026181197 0.0 
-2.22943447644 -2.00739181907 0.0 
-2.18690588227 -2.05364131778 0.0 
[...]
<PointData Scalars="solution">
<DataArray type="Float64" Name="Real part" format="ascii">
0.00593506621999
-1.0
-1.0
-1.0
0.0
-6.85573335938e-28
-7.33246902455e-28
-6.85712049423e-28
0.000518596191218
-0.739851221217
-0.483577506653
-0.20418344049
0.0632514825572
0.296447796115
0.485088698425
0.627986521727
0.729633756738
0.797044671373
0.837312488087
0.855957384759
0.85595738476
0.837312488088
0.797044671375
0.729633756742
0.627986521732
0.485088698431
0.296447796121
0.0632514825631
-0.204183440485
-0.48357750665
-0.739851221215
-0.927873946064
-0.918343039478
-0.669666474852
-0.278423503956
0.188039974058
0.627498031413
0.925905558724
0.991347067661
0.788430520344
0.359352024828
-0.179773598659
-0.670269507263
-0.961301385778
-0.961301385787
-0.670269507285
-0.179773598686
0.359352024805
0.788430520331
0.991347067658
0.92590555873
0.627498031422
0.188039974066
-0.278423503951
-0.669666474848
-0.918343039478
-0.927873946065
-0.739851221217
-0.483577506653
-0.20418344049
0.0632514825572
0.296447796115
0.485088698425
0.627986521727
0.729633756738
0.797044671373
0.837312488087
0.855957384759
0.85595738476
0.837312488088
0.797044671375
0.729633756742
0.627986521732
0.485088698431
0.296447796121
0.0632514825631
-0.204183440485
-0.48357750665
-0.739851221215
-0.927873946064
-0.918343039478
-0.669666474852
-0.278423503956
0.188039974058
0.627498031413
0.925905558724
0.991347067661
0.788430520344
0.359352024828
-0.179773598659
-0.670269507263
-0.961301385778
-0.961301385787
-0.670269507285
-0.179773598686
0.359352024805
0.788430520331
0.991347067658
0.92590555873
0.627498031422
0.188039974066
-0.278423503951
-0.669666474848
-0.918343039478
0.0
-8.28826771566e-28
1.34757827656e-27
1.06510550301e-26
-4.11607222966e-27
3.6246235995e-27
4.00630831159e-27
-5.90517002781e-29
2.24366671068e-27
1.44803866348e-27
-1.54085196465e-27
7.97831192833e-27
9.70696888871e-27
-1.12323299092e-27
9.53731456688e-28
-2.25673028418e-27
-6.81657232886e-28
2.82727796224e-27
9.72701903849e-27
7.63859541619e-26
2.67424198667e-26
-1.99831172596e-27
-1.55599783203e-27
3.95410823117e-27
1.01936793341e-27
3.51846815204e-27
1.00240202205e-27
3.95646942536e-28
-4.39128993015e-27
-9.80667605589e-28
-1.94127095888e-27
1.3679244476e-27
-1.36090112628e-28
-9.78747736432e-29
1.46785211154e-28
-2.30090771277e-28
1.23924223702e-27
3.51123011544e-27
9.33515981422e-28
-4.60851755357e-27
1.93274935902e-27
-1.39679114389e-27
-2.74425368843e-27
-3.85595627025e-27
1.63147230651e-28
3.18884198243e-28
-2.05817254394e-27
4.25509727585e-27
9.32766903687e-27
1.37691246792e-26
3.7555039123e-27
-1.09250984592e-27
-9.52271326995e-28
2.40357511213e-27
2.22516306157e-27
-1.51031140621e-27
-6.99251393218e-27
1.83215949442e-27
-3.9504417433e-29
1.81146105039e-27
1.21177672449e-27
8.24287121377e-28
-5.24182956928e-28
-3.05781177823e-27
-6.81070387445e-27
5.18720969327e-27
-9.7246515419e-27
5.83376885425e-27
-1.82340252718e-27
-2.93898671488e-29
-2.79528935645e-27
-4.62819923388e-28
8.87311781128e-28
-3.34084160366e-29
-2.55462078949e-27
1.60705775296e-27
1.19579311972e-27
2.19707278051e-27
-1.78915885317e-26
1.99006888693e-27
2.51978881499e-27
-4.12909459165e-28
-6.80085566727e-28
-1.14558317051e-27
-5.8302506398e-28
1.18741259192e-26
7.79410468303e-27
1.42795753209e-26
1.48370029432e-26
-3.77624082618e-26
-2.6987552815e-26
1.48122892141e-26
3.36017222112e-26
2.26062794193e-25
8.07710165248e-26
-2.56484935107e-26
-9.92552221872e-27
3.00061254945e-26
1.44370397926e-26
-2.15825134607e-26
-8.57165712936e-27
2.59690723296e-26
3.58462663622e-26
6.89419662932e-28
-4.81709217549e-27
2.59412071054e-27
5.69243526683e-28
8.87330943662e-29
-1.94671284254e-27
3.04897160371e-27
7.83399245132e-27
-6.74345670812e-28
2.78870570665e-28
3.06239504717e-27
3.93652674212e-28
-1.23238508883e-27
6.8852136813e-28
1.12586448955e-27
2.02780573118e-28
-8.8834322531e-28
-1.79871604481e-27
3.5502449188e-27
6.90120206209e-27
9.67735968637e-27
2.25690115887e-27
1.4339009043e-28
-2.26923016737e-27
-8.4161252421e-28
-3.59893079243e-28
-4.58256500403e-28
-4.67394666499e-28
1.97506756747e-27
4.11489970148e-29
1.00105809461e-27
8.68216088804e-28
7.50000151899e-28
-1.87507883574e-28
-3.15076857229e-27
-6.85255619128e-27
4.46916631123e-27
-8.45409690711e-27
4.76695633729e-27
-1.48370232599e-27
-1.05527003501e-28
-2.10023916165e-27
-2.40502412509e-28
7.35032150576e-28
-2.10096932643e-29
-2.7101526749e-27
1.35592722601e-27
1.23194727617e-27
5.27987314869e-27
-1.42121535184e-26
2.5486011464e-27
2.94391647446e-27
-4.6036333524e-28
-7.08166696946e-29
-6.37727333749e-28
-5.98629280108e-28
9.46080408126e-27
1.21792664729e-26
-7.65528018454e-28
8.42234438307e-28
-2.15806721176e-27
-5.77682472149e-28
2.80194244051e-27
9.73726821181e-27
7.63959127448e-26
2.67748428386e-26
-1.96672362182e-27
-1.5284342536e-27
3.94915764567e-27
1.02155965897e-27
3.53927063259e-27
1.00918569275e-27
3.94946978285e-28
-4.40209314628e-27
-9.77290786863e-28
-1.92730671669e-27
1.35615235013e-27
-1.37906950185e-28
-9.82737233011e-29
1.53007766937e-28
-2.39677522993e-28
1.21168809302e-27
3.51020495562e-27
9.31750165808e-28
-4.56689669135e-27
1.93726230759e-27
-1.40448291926e-27
-2.746398713e-27
-3.85658971669e-27
1.63085111834e-28
3.20558407938e-28
-2.05544226565e-27
4.24977539635e-27
9.32323787081e-27
1.37491615862e-26
3.75135036712e-27
-1.09305125533e-27
-9.52207432091e-28
2.40237077015e-27
2.22593783708e-27
-1.51129258348e-27
-6.99883068037e-27
1.82926429266e-27
-3.98197015102e-29
1.81284569732e-27
1.21148401219e-27
8.25598102275e-28
-5.21063627827e-28
-3.05409357762e-27
-6.81181697969e-27
5.20792297426e-27
-9.76873312943e-27
5.8700604773e-27
-1.83008715776e-27
-2.81650027785e-29
-2.81162138868e-27
-4.68826902048e-28
8.91012810032e-28
-3.27547278454e-29
-2.55676146573e-27
1.60312600276e-27
1.19640074981e-27
2.1838846565e-27
-1.78868817757e-26
1.98958508757e-27
2.51817300628e-27
-4.11783903616e-28
-6.79627183001e-28
-1.14198310847e-27
-5.76683991406e-28
1.18043614358e-26
7.72180382355e-27
1.42856225708e-26
1.48425597993e-26
-3.77809025334e-26
-2.7013389215e-26
1.48123557529e-26
3.35937008459e-26
2.25969248551e-25
8.08372297061e-26
-2.5657776083e-26
-9.92505525488e-27
3.00170358012e-26
1.44318395343e-26
-2.1603094742e-26
-8.57843456513e-27
2.59774722006e-26
3.58481126098e-26
6.91043137564e-28
-4.81776357151e-27
2.59275212233e-27
5.69345970215e-28
8.89217686424e-29
-1.94681068889e-27
3.04848616863e-27
7.8317574749e-27
-6.75923164704e-28
2.78346996705e-28
3.07053993173e-27
3.93114507705e-28
-1.23317748181e-27
6.9016895054e-28
1.12806931545e-27
2.01346541394e-28
-8.89506790706e-28
-1.79782689017e-27
3.54787130099e-27
6.89905651812e-27
9.6600897482e-27
2.25253554214e-27
1.19054841729e-28
-2.26433426884e-27
-8.65490362957e-28
-3.20623868596e-28
-4.87032624137e-28
-6.27344727515e-28
1.88301389603e-27
9.86100251513e-29
9.8540138089e-28
7.95820325729e-28
7.24393450184e-28
4.61449974324e-28
-2.00391039446e-27
-5.37697477563e-27
9.68877128714e-28
-1.73570280546e-27
-2.78994013341e-28
4.64907199838e-28
-4.17584938399e-28
1.6449376098e-27
8.94708753651e-28
-7.00648176104e-29
-2.21428264206e-28
-6.77282387106e-14
2.19821699176e-14
1.27869305794e-14
2.1889058371e-14
-2.87856242203e-14
9.23117401216e-15
-2.88100965763e-14
9.22506098774e-15
1.21717954396e-14
1.87166526618e-14
1.21673457501e-14
1.86825310406e-14
2.48784368562e-18
2.02296198457e-17
2.81269176991e-18
2.02333918199e-17
2.21557551342e-09
6.94566808126e-09
2.25555878134e-09
6.94152605891e-09
-3.29712795315e-19
-5.01134520474e-20
-3.28868029526e-19
-2.55093907124e-19
2.31497220129e-19
-1.32319896777e-19
2.31105295966e-19
-1.3208840025e-19
-1.36490718028e-08
-1.44663295762e-08
-1.36509419362e-08
-1.49838136364e-08
2.96624219351e-10
1.86944286948e-09
2.98713439497e-10
1.86921256933e-09
1.32920855799e-20
-1.45767078664e-19
1.33755175406e-20
-1.45720171451e-19
-2.97570281508e-20
4.94332602698e-21
-3.80842619071e-21
4.9435394021e-21
2.17052132264e-21
1.40838177984e-21
2.16836169321e-21
1.32860309012e-21
-1.76259105358e-07
-2.69164365281e-07
-1.76301934175e-07
-2.69358880272e-07
-7.19486968763e-07
-6.82219780725e-07
7.83525277258e-08
-7.18922204117e-07
-5.15488333824e-23
9.24279593169e-22
-5.34170416054e-23
9.24128212222e-22
-5.19091533441e-22
1.61962398878e-22
-5.21745814994e-22
-4.20776363691e-22
8.97958831988e-22
6.6310199479e-22
8.97045486096e-22
6.62423083974e-22
-8.05402930575e-14
5.83525674201e-15
-8.05128653378e-14
5.83553429512e-15
-5.10188032465e-13
-4.95439408438e-13
-4.95528016506e-13
-4.94096309803e-13
1.55268920952e-13
3.81265698756e-14
1.5520096708e-13
3.81625948005e-14
1.40306863078e-06
3.95351147523e-06
1.40280256316e-06
3.95850135458e-06
-2.8687268023e-14
-4.24417907743e-14
-1.61572272019e-14
-4.22582147945e-14
-8.61048964121e-24
8.06321086118e-24
-4.37915663857e-23
8.48806703596e-24
3.23797032606e-22
9.25084380128e-22
3.24421170788e-22
9.2492566805e-22
3.17624086182e-23
2.70860310271e-23
3.16859591764e-23
2.29965759404e-23
-4.55206951028e-11
-3.66111976559e-10
-4.55133453101e-11
-3.6632359545e-10
0.000173506357978
0.000500100288351
0.000173460759583
0.000500132784445
1.01243698874e-17
2.34835540211e-18
1.01436487521e-17
2.34669179001e-18
2.97994493341e-17
2.58217124922e-17
2.97644982539e-17
2.88601981793e-17
-3.72513785584e-23
-1.85963227148e-24
-3.71804422035e-23
-1.83835233653e-24
-4.52292786261e-17
-3.53016323434e-17
-4.52575265844e-17
-3.53187124419e-17
-1.94831422184e-23
-7.85062807488e-23
-7.82532993677e-23
-6.86405668237e-23
-1.73228158477e-05
-1.26241400471e-05
-1.73346518259e-05
-1.25984969126e-05
1.80491171451e-16
2.86526904216e-16
1.80342201757e-16
2.8830909614e-16
-1.33160478803e-10
-2.20374599688e-10
-2.20579783621e-10
-2.09871682596e-10
2.778969919e-10
-6.06415664668e-12
2.7807446824e-10
-6.16797801205e-12
-0.000158907322898
-0.000158537159645
-0.000158916780016
-0.000151414817329
-1.21765347375e-12
-1.0092658906e-12
-1.21678808109e-12
-1.00876633549e-12
-4.99809309416e-11
-1.073785193e-10
-1.1080959406e-10
-1.07320070093e-10
-1.17694508745e-24
-3.0096108791e-24
-1.17023831556e-24
-3.00226485053e-24
-3.75871474413e-24
-1.01617486652e-24
-1.51256845074e-24
-1.0160943072e-24
1.9899363822e-16
-2.60222305342e-16
1.9929434432e-16
-2.6031131034e-16
-1.15524208272e-10
-9.26190118286e-11
-1.15546294926e-10
-9.25993157531e-11
4.40265841268e-17
5.08627721087e-17
8.25111943571e-18
5.08890554834e-17
-7.24979064224e-25
-4.45121740357e-25
-4.92102783111e-25
-4.46296746703e-25
3.3321064634e-24
8.70263359159e-24
3.33616437262e-24
8.70188481972e-24
3.03712074861e-24
5.34940898484e-25
3.0371880463e-24
5.51379795132e-25
9.18176355111e-25
8.04206743452e-26
9.1642037463e-25
8.07702985601e-26
-4.32917234382e-19
-1.25724550454e-18
-4.38122406367e-19
-1.25706990306e-18
-4.88315495739e-20
2.97054850964e-20
8.63167030253e-21
3.01230064737e-20
-2.09793021609e-19
-4.42175452229e-19
-1.78239738318e-19
-4.41761207653e-19
3.62246118617e-05
5.12201613426e-05
3.1456278738e-05
5.126858986e-05
-7.65427850012e-13
-3.43390939295e-13
-3.66890922626e-13
-7.6493400251e-13
2.4439984255e-19
2.16215411583e-18
2.41504930565e-19
2.16061439102e-18
3.70931981267e-19
5.62924342081e-19
3.71093496483e-19
5.62887939361e-19
1.84883765223e-24
-1.29451889348e-25
1.84577826065e-24
-1.88997562391e-25
-5.96684876626e-21
-4.1639810677e-21
-5.97280760613e-21
-5.01412033123e-21
7.30030677157e-13
1.79184798286e-12
7.48104934107e-13
1.79094950306e-12
-2.36804819306e-08
-1.72177697746e-08
-2.37285502808e-08
-1.71997991117e-08
0.000137601031716
5.38598433599e-05
0.000137564354669
5.37897811668e-05
0.00029673208335
0.000235000217883
0.00029667679581
0.00023498951935
-2.542122147e-24
-1.8103153447e-23
-2.52315873559e-24
-1.81107229649e-23
7.5917852959e-26
1.65821948816e-24
8.07893530315e-26
1.65825531522e-24
1.58650420595e-25
2.74729922464e-25
2.76348131838e-25
2.75836428183e-25
2.74741819017e-16
-6.61647588468e-16
2.75358542982e-16
-6.60621136825e-16
0.000303690545111
0.00134367891793
0.00134421252833
0.000303665728501
1.06452113693e-08
-3.23958107109e-10
1.73695587437e-08
-3.43628801629e-10
-0.000881996625989
-1.72448193636e-05
-0.000881534278862
-0.000887962822612
-3.42564086589e-10
-6.83860023277e-10
-3.43948085911e-10
-6.85780212191e-10
3.6048423741e-21
-2.16168463605e-21
3.64765185507e-21
-2.15046076279e-21
7.30328326357e-21
5.79255740841e-20
7.09065437694e-21
1.45028953718e-20
2.1116289535e-20
3.22015050423e-19
2.09760849876e-20
3.22344197305e-19
-1.55797976204e-07
-1.55683858375e-07
-1.43133444044e-07
-1.43831127763e-07
-1.71997713198e-09
-2.4253196123e-08
-1.70266266429e-09
-2.4291282233e-08
1.07510617623e-21
1.02800569082e-21
1.07553688338e-21
1.02640211208e-21
-5.37075977717e-16
4.19677353171e-15
-5.23045095094e-16
4.19940779481e-15
-4.81558041285e-22
3.27239170513e-22
-4.81964418765e-22
3.30237100078e-22
-1.11139499746e-10
-9.98870025071e-11
-1.11054857541e-10
-1.08850217415e-10
-2.87483683937e-13
-3.74642778889e-13
-3.73957598347e-13
-3.53269569014e-13
4.14373316974e-11
1.48825205778e-11
4.14279062186e-11
1.48940136903e-11
-8.67165682367e-13
-5.07893138259e-13
-8.65025842686e-13
-5.07799305289e-13
2.1043651244e-24
1.45856583626e-24
2.10227554551e-24
1.45696658968e-24
-1.27810762161e-16
-2.06763629148e-16
-1.37180503914e-16
-1.28037368985e-16
4.85304515606e-17
-1.51244789843e-17
4.87234632557e-17
-1.51477805813e-17
2.19095117288e-09
-4.16411572633e-08
2.1907860823e-09
-4.17096069587e-08
-9.74575230301e-25
-1.27251452454e-24
-1.27261942234e-24
-1.33667924629e-24
3.1605122947e-26
1.64831222033e-25
3.09208177882e-26
1.65037014667e-25
3.77537477271e-11
1.74640986713e-11
3.77502520332e-11
2.19559396863e-11
-9.77299279797e-26
-6.77116421123e-26
-6.74454325243e-26
-7.53184509691e-26
-7.93561390265e-15
2.94267034513e-14
2.92730649627e-14
4.65529399009e-14
7.80079324861e-14
-1.64521156038e-13
7.8174431467e-14
-1.64483984542e-13
-1.66231298224e-26
2.77024285903e-26
-3.37533993296e-26
2.74320470467e-26
-3.23297516514e-17
-7.98706729279e-17
-4.18435915886e-17
-7.99601413032e-17
1.33444911693e-11
1.33335439396e-10
1.33454006361e-11
1.33364928806e-10
-4.33062039429e-25
-2.97527618621e-24
-4.29460718081e-25
-2.97597025957e-24
3.35614081136e-06
2.05469086043e-06
3.35655279103e-06
2.05438624443e-06
4.94261671876e-16
1.49066427309e-15
4.94656875678e-16
1.48965673424e-15
3.16966456765e-22
9.17495925489e-22
4.443634182e-22
9.18826157528e-22
-1.50028773769e-21
4.04257042561e-22
-1.49896330214e-21
4.05153701453e-22
-2.08900607926e-21
-2.15291117197e-21
-2.11988634068e-21
-2.09071476242e-21
2.8744453123e-21
1.89766995117e-20
2.87883993497e-21
1.89758284825e-20
8.71176503536e-25
1.46973949896e-24
5.64550078385e-25
5.63886793304e-25
-1.01418868084e-18
-1.22074478351e-18
-1.00873263091e-18
-1.17929395794e-18
6.85039561651e-06
1.03215683231e-06
6.79348624126e-06
1.03206463491e-06
1.15783453861e-17
2.40767364535e-17
2.41218010825e-17
-9.73919861264e-17
-5.28723513966e-26
1.02816307634e-25
-5.23985155689e-26
1.03123890361e-25
9.56246971895e-13
1.44678057848e-12
9.56114384281e-13
1.4448833464e-12
4.0955456316e-12
5.3867299863e-12
5.19630934372e-12
5.38913708027e-12
-6.82185032282e-26
-1.46838812533e-26
-6.83400063153e-26
-1.46810860899e-26
0.00149431533675
-0.000987428846684
0.00149498683804
-0.000988168950907
3.88515886167e-21
4.22668716782e-21
4.3345182913e-21
4.22222842442e-21
-8.5196737911e-17
3.47360075702e-17
-8.50493647204e-17
3.46346748282e-17
2.20538976082e-16
4.36957015612e-16
2.20224323304e-16
4.36310635504e-16
9.66324298983e-11
1.88395221518e-10
9.64838788552e-11
1.90579508163e-10
-7.00913169423e-10
-6.00289884113e-10
-3.25860122933e-13
-7.0008399137e-10
3.09884522669e-18
-1.61583665664e-17
3.08089686177e-18
-1.6171922036e-17
0.0016795921295
3.02215445019e-05
0.00167813069507
2.95458794078e-05
1.45787798858e-25
1.61644709954e-25
1.455422766e-25
1.28710873882e-25
4.9991166482e-15
8.93183108907e-15
5.00223172275e-15
8.81369755364e-15
0.0023914478927
0.00233792207839
0.00239181108454
0.00233824267926
-1.41700372439e-11
-6.22624721937e-13
-1.41882862776e-11
-6.20214627339e-13
2.14110171797e-20
-2.92635709149e-20
2.15573536769e-20
-2.94439938162e-20
-9.95880496806e-08
4.49333909829e-07
-9.8609206294e-08
4.48356487666e-07
3.89094183924e-09
-7.80185251331e-10
3.89129901502e-09
-7.80735675337e-10
-4.92456129521e-23
-5.50617161735e-23
-4.4107990783e-23
-4.93006330583e-23
-3.49570562388e-15
-3.64243861319e-15
-4.60333357613e-15
-3.49981240438e-15
1.17273708815e-21
-7.10756671244e-22
1.17175413718e-21
-7.09459451883e-22
4.53194108901e-15
9.60331194683e-16
4.53676041846e-15
9.58562304393e-16
5.84328458528e-22
2.30782538014e-22
5.84571473903e-22
2.44558449011e-22
-4.82278417932e-21
-9.34418254253e-21
-5.78935323116e-21
-9.33632628111e-21
1.72306899968e-25
1.36928238297e-25
1.72595561636e-25
1.37134905836e-25
3.88637336823e-23
-3.82780530053e-22
3.90266402234e-23
-3.82817624144e-22
-3.02691467893e-20
-3.34034821654e-20
-3.36526320191e-20
-2.98858768757e-20
-1.58761594826e-25
-1.46029478991e-25
-1.58917536223e-25
-1.48078006838e-25
1.44755415521e-05
-6.16069509442e-07
1.44671693303e-05
-6.12392907508e-07
9.60974177857e-06
7.10063812143e-06
9.61693018279e-06
7.10676171158e-06
3.70503825237e-25
1.21204967786e-26
3.7019945597e-25
1.19211974973e-26
2.833100587e-26
2.84506752662e-26
8.69290373869e-26
3.82810482522e-26
2.55734754386e-21
8.90324212395e-21
2.58661486015e-21
8.9447632466e-21
0.00430385126998
-0.00421043914103
0.00430379223499
-0.00421118802529
-1.51615741052e-14
-1.21152605206e-14
-1.09105042684e-14
-1.51712217341e-14
-8.69870069704e-17
-7.27072312693e-17
-7.51378836565e-17
-8.70223229162e-17
-6.54999089474e-24
3.49867745625e-23
-6.4044671061e-24
3.49787653319e-23
-4.74103339773e-11
-3.9267436025e-11
-4.7553956751e-11
-3.93999095558e-11
-5.74861092782e-20
-9.38068099244e-20
-5.76636562672e-20
-9.37292758145e-20
1.13196937795e-13
2.60920519456e-13
1.14051112751e-13
2.61283340876e-13
3.21695170222e-23
-1.12531649333e-22
-1.13004751985e-22
-9.09291979296e-23
-0.00147080755622
0.000438175904717
-0.0014700282001
0.000454431392252
2.54897247499e-07
-3.39868584355e-07
2.54882760457e-07
-3.39987647375e-07
-1.18562714625e-18
2.26223541036e-19
-1.18556596149e-18
2.26817369412e-19
3.2852468498e-13
3.46059567824e-12
3.28394796878e-13
3.46485871632e-12
-3.72042416045e-17
1.63562178208e-16
1.00731580181e-16
1.629364272e-16
1.26956401058e-18
1.32912024139e-18
1.27063178505e-18
1.62001033327e-18
0.00195201995952
0.00273295002446
0.00273097945161
0.0019503286099
-2.65015116873e-09
-2.73494410155e-10
-2.6506469153e-09
-2.69686824491e-10
-2.95344551799e-25
-9.98350568015e-25
-2.93918768667e-25
-9.97365901046e-25
5.75918291362e-06
5.91094141051e-06
5.75725286584e-06
5.93397422962e-06
4.85853917603e-26
-1.84687608802e-25
3.41704440569e-26
-1.84641053252e-25
-4.23639011591e-16
-3.9596375465e-16
-4.21637792517e-16
-3.95753387483e-16
-3.63789819051e-23
1.40744421185e-23
-3.6393119822e-23
1.32131559044e-23
5.06673459608e-15
1.3691223485e-14
5.64312180073e-15
1.37102857177e-14
1.25776330256e-25
6.0008187758e-26
1.25175897778e-25
5.98488907621e-26
-9.96679525271e-26
-7.84524551685e-26
-9.9579498565e-26
-9.75740501419e-26
-2.29786596996e-19
-1.26008196739e-19
-2.29737915659e-19
-1.25978745641e-19
-7.4629005145e-10
-1.68539176388e-09
-2.20279941905e-09
-7.46107928579e-10
4.23104768773e-12
6.55370701606e-12
4.24176175144e-12
6.53314925003e-12
4.65308497247e-24
-3.2173829609e-23
4.52965639355e-24
3.24712171038e-24
-1.54396558063e-20
-1.41793834157e-20
-1.6619304281e-20
-1.66169800292e-20
-5.84762013334e-19
-8.76068894807e-19
-3.87542644603e-19
-8.76021057552e-19
-6.5673221074e-24
-6.87508256452e-24
-6.51153159994e-24
-6.89981115002e-24
-6.25473988417e-09
-6.36567639972e-09
-6.57932740587e-09
-6.58197152597e-09
-4.0079011734e-17
-1.0260117757e-16
-3.99653874327e-17
-1.02715025036e-16
0.000945141691023
0.00177442509724
0.000945170544444
0.00144636608067
-3.30614737469e-12
-3.94709077687e-12
-3.30298255417e-12
-3.93929810481e-12
2.52295234525e-16
9.27093913383e-16
9.25285900323e-16
8.89983654087e-16
1.78417852042e-13
1.96605694175e-13
1.79292311034e-13
1.52969431165e-13
-3.44903345101e-19