<VTKFile type="UnstructuredGrid" version="1.0" byte_order="LittleEndian" header_type="UInt64">
<UnstructuredGrid>
<Piece NumberOfPoints="7192" NumberOfCells="14020">
<Points>
<DataArray NumberOfComponents="3" type="Float64">
1.0 0.0 0.0 
0.0 1.0 0.0 
-1.0 0.0 0.0 
0.0 -1.0 0.0 
3.0 0.0 0.0 
0.0 3.0 0.0 
-3.0 0.0 0.0 
0.0 -3.0 0.0 
0.997668769191 0.0682424133644 0.0 
0.990685946036 0.136166649096 0.0 
0.979084087682 0.203456013052 0.0 
0.962917287348 0.269796771156 0.0 
0.942260922119 0.33487961217 0.0 
0.917211301506 0.398401089845 0.0 
0.887885218403 0.46006503773 0.0 
0.854419404547 0.519583950034 0.0 
0.816969893011 0.576680322114 0.0 
0.775711290706 0.631087944325 0.0 
0.730835964279 0.682553143217 0.0 
0.68255314322 0.730835964277 0.0 
0.631087944327 0.775711290703 0.0 
0.576680322116 0.81696989301 0.0 
0.519583950037 0.854419404546 0.0 
0.460065037732 0.887885218402 0.0 
0.398401089847 0.917211301505 0.0 
0.334879612172 0.942260922119 0.0 
0.269796771157 0.962917287348 0.0 
0.203456013053 0.979084087682 0.0 
0.136166649096 0.990685946036 0.0 
0.0682424133646 0.997668769191 0.0 
-0.0682424133644 0.997668769191 0.0 
-0.136166649096 0.990685946036 0.0 
-0.203456013052 0.979084087682 0.0 
-0.269796771156 0.962917287348 0.0 
-0.33487961217 0.942260922119 0.0 
-0.398401089845 0.917211301506 0.0 
-0.46006503773 0.887885218403 0.0 
-0.519583950034 0.854419404547 0.0 
-0.576680322114 0.816969893011 0.0 
-0.631087944325 0.775711290706 0.0 
-0.682553143217 0.730835964279 0.0 
-0.730835964277 0.68255314322 0.0 
-0.775711290703 0.631087944327 0.0 
-0.81696989301 0.576680322116 0.0 
-0.854419404546 0.519583950037 0.0 
-0.887885218402 0.460065037732 0.0 
-0.917211301505 0.398401089847 0.0 
-0.942260922119 0.334879612172 0.0 
-0.962917287348 0.269796771157 0.0 
-0.979084087682 0.203456013053 0.0 
-0.990685946036 0.136166649096 0.0 
-0.997668769191 0.0682424133646 0.0 
-0.997668769191 -0.0682424133644 0.0 
-0.990685946036 -0.136166649096 0.0 
-0.979084087682 -0.203456013052 0.0 
-0.962917287348 -0.269796771156 0.0 
-0.942260922119 -0.33487961217 0.0 
-0.917211301506 -0.398401089845 0.0 
-0.887885218403 -0.46006503773 0.0 
-0.854419404547 -0.519583950034 0.0 
-0.816969893011 -0.576680322114 0.0 
-0.775711290706 -0.631087944325 0.0 
-0.730835964279 -0.682553143217 0.0 
-0.68255314322 -0.730835964277 0.0 
-0.631087944327 -0.775711290703 0.0 
-0.576680322116 -0.81696989301 0.0 
-0.519583950037 -0.854419404546 0.0 
-0.460065037732 -0.887885218402 0.0 
-0.398401089847 -0.917211301505 0.0 
-0.334879612172 -0.942260922119 0.0 
-0.269796771157 -0.962917287348 0.0 
-0.203456013053 -0.979084087682 0.0 
-0.136166649096 -0.990685946036 0.0 
-0.0682424133646 -0.997668769191 0.0 
0.0682424133644 -0.997668769191 0.0 
0.136166649096 -0.990685946036 0.0 
0.203456013052 -0.979084087682 0.0 
0.269796771156 -0.962917287348 0.0 
0.33487961217 -0.942260922119 0.0 
0.398401089845 -0.917211301506 0.0 
0.46006503773 -0.887885218403 0.0 
0.519583950034 -0.854419404547 0.0 
0.576680322114 -0.816969893011 0.0 
0.631087944325 -0.775711290706 0.0 
0.682553143217 -0.730835964279 0.0 
0.730835964277 -0.68255314322 0.0 
0.775711290703 -0.631087944327 0.0 
0.81696989301 -0.576680322116 0.0 
0.854419404546 -0.519583950037 0.0 
0.887885218402 -0.460065037732 0.0 
0.917211301505 -0.398401089847 0.0 
0.942260922119 -0.334879612172 0.0 
0.962917287348 -0.269796771157 0.0 
0.979084087682 -0.203456013053 0.0 
0.990685946036 -0.136166649096 0.0 
0.997668769191 -0.0682424133646 0.0 
2.99919962433 0.0692936749583 0.0 
2.99679892441 0.138550375936 0.0 
2.99279918119 0.207733148682 0.0 
2.98720252889 0.276805078389 0.0 
2.98001195377 0.345729309397 0.0 
2.97123129263 0.414469064854 0.0 
2.96086523066 0.482987666343 0.0 
2.94891929905 0.551248553448 0.0 
2.93539987194 0.619215303268 0.0 
2.92031416308 0.686851649849 0.0 
2.90367022196 0.754121503531 0.0 
2.88547692952 0.820988970214 0.0 
2.8657439934 0.887418370502 0.0 
2.84448194277 0.953374258743 0.0 
2.82170212273 1.01882144195 0.0 
2.79741668821 1.08372499856 0.0 
2.77163859754 1.14805029709 0.0 
2.74438160547 1.21176301461 0.0 
2.71566025589 1.27482915505 0.0 
2.68548987407 1.33721506733 0.0 
2.65388655841 1.39888746334 0.0 
2.62086717194 1.4598134357 0.0 
2.58644933327 1.51996047529 0.0 
2.55065140719 1.57929648863 0.0 
2.5134924949 1.63778981498 0.0 
2.4749924238 1.69540924326 0.0 
2.43517173689 1.75212402868 0.0 
2.39405168184 1.80790390913 0.0 
2.35165419966 1.86271912139 0.0 
2.30800191295 1.91654041695 0.0 
2.26311811386 1.96933907764 0.0 
2.21702675167 2.02108693094 0.0 
2.16975241996 2.07175636504 0.0 
2.12132034356 2.12132034356 0.0 
2.07175636505 2.16975241995 0.0 
2.02108693094 2.21702675166 0.0 
1.96933907764 2.26311811386 0.0 
1.91654041696 2.30800191295 0.0 
1.8627191214 2.35165419966 0.0 
1.80790390914 2.39405168184 0.0 
1.75212402868 2.43517173688 0.0 
1.69540924327 2.47499242379 0.0 
1.63778981499 2.5134924949 0.0 
1.57929648864 2.55065140719 0.0 
1.51996047529 2.58644933326 0.0 
1.4598134357 2.62086717194 0.0 
1.39888746335 2.65388655841 0.0 
1.33721506733 2.68548987406 0.0 
1.27482915505 2.71566025589 0.0 
1.21176301462 2.74438160546 0.0 
1.1480502971 2.77163859753 0.0 
1.08372499856 2.79741668821 0.0 
1.01882144195 2.82170212273 0.0 
0.953374258748 2.84448194277 0.0 
0.887418370505 2.8657439934 0.0 
0.820988970218 2.88547692952 0.0 
0.754121503535 2.90367022196 0.0 
0.686851649852 2.92031416308 0.0 
0.619215303271 2.93539987194 0.0 
0.551248553451 2.94891929905 0.0 
0.482987666345 2.96086523066 0.0 
0.414469064856 2.97123129263 0.0 
0.345729309399 2.98001195377 0.0 
0.27680507839 2.98720252889 0.0 
0.207733148682 2.99279918119 0.0 
0.138550375937 2.99679892441 0.0 
0.0692936749586 2.99919962433 0.0 
-0.0692936749583 2.99919962433 0.0 
-0.138550375936 2.99679892441 0.0 
-0.207733148682 2.99279918119 0.0 
-0.276805078389 2.98720252889 0.0 
-0.345729309397 2.98001195377 0.0 
-0.414469064854 2.97123129263 0.0 
-0.482987666343 2.96086523066 0.0 
-0.551248553448 2.94891929905 0.0 
-0.619215303268 2.93539987194 0.0 
-0.686851649849 2.92031416308 0.0 
-0.754121503531 2.90367022196 0.0 
-0.820988970214 2.88547692952 0.0 
-0.887418370502 2.8657439934 0.0 
-0.953374258743 2.84448194277 0.0 
-1.01882144195 2.82170212273 0.0 
-1.08372499856 2.79741668821 0.0 
-1.14805029709 2.77163859754 0.0 
-1.21176301461 2.74438160547 0.0 
-1.27482915505 2.71566025589 0.0 
-1.33721506733 2.68548987407 0.0 
-1.39888746334 2.65388655841 0.0 
-1.4598134357 2.62086717194 0.0 
-1.51996047529 2.58644933327 0.0 
-1.57929648863 2.55065140719 0.0 
-1.63778981498 2.5134924949 0.0 
-1.69540924326 2.4749924238 0.0 
-1.75212402868 2.43517173689 0.0 
-1.80790390913 2.39405168184 0.0 
-1.86271912139 2.35165419966 0.0 
-1.91654041695 2.30800191295 0.0 
-1.96933907764 2.26311811386 0.0 
-2.02108693094 2.21702675167 0.0 
-2.07175636504 2.16975241996 0.0 
-2.12132034356 2.12132034356 0.0 
-2.16975241995 2.07175636505 0.0 
-2.21702675166 2.02108693094 0.0 
-2.26311811386 1.96933907764 0.0 
-2.30800191295 1.91654041696 0.0 
-2.35165419966 1.8627191214 0.0 
-2.39405168184 1.80790390914 0.0 
-2.43517173688 1.75212402868 0.0 
-2.47499242379 1.69540924327 0.0 
-2.5134924949 1.63778981499 0.0 
-2.55065140719 1.57929648864 0.0 
-2.58644933326 1.51996047529 0.0 
-2.62086717194 1.4598134357 0.0 
-2.65388655841 1.39888746335 0.0 
-2.68548987406 1.33721506733 0.0 
-2.71566025589 1.27482915505 0.0 
-2.74438160546 1.21176301462 0.0 
-2.77163859753 1.1480502971 0.0 
-2.79741668821 1.08372499856 0.0 
-2.82170212273 1.01882144195 0.0 
-2.84448194277 0.953374258748 0.0 
-2.8657439934 0.887418370505 0.0 
-2.88547692952 0.820988970218 0.0 
-2.90367022196 0.754121503535 0.0 
-2.92031416308 0.686851649852 0.0 
-2.93539987194 0.619215303271 0.0 
-2.94891929905 0.551248553451 0.0 
-2.96086523066 0.482987666345 0.0 
-2.97123129263 0.414469064856 0.0 
-2.98001195377 0.345729309399 0.0 
-2.98720252889 0.27680507839 0.0 
-2.99279918119 0.207733148682 0.0 
-2.99679892441 0.138550375937 0.0 
-2.99919962433 0.0692936749586 0.0 
-2.99919962433 -0.0692936749583 0.0 
-2.99679892441 -0.138550375936 0.0 
-2.99279918119 -0.207733148682 0.0 
-2.98720252889 -0.276805078389 0.0 
-2.98001195377 -0.345729309397 0.0 
-2.97123129263 -0.414469064854 0.0 
-2.96086523066 -0.482987666343 0.0 
-2.94891929905 -0.551248553448 0.0 
-2.93539987194 -0.619215303268 0.0 
-2.92031416308 -0.686851649849 0.0 
-2.90367022196 -0.754121503531 0.0 
-2.88547692952 -0.820988970214 0.0 
-2.8657439934 -0.887418370502 0.0 
-2.84448194277 -0.953374258743 0.0 
-2.82170212273 -1.01882144195 0.0 
-2.79741668821 -1.08372499856 0.0 
-2.77163859754 -1.14805029709 0.0 
-2.74438160547 -1.21176301461 0.0 
-2.71566025589 -1.27482915505 0.0 
-2.68548987407 -1.33721506733 0.0 
-2.65388655841 -1.39888746334 0.0 
-2.62086717194 -1.4598134357 0.0 
-2.58644933327 -1.51996047529 0.0 
-2.55065140719 -1.57929648863 0.0 
-2.5134924949 -1.63778981498 0.0 
-2.4749924238 -1.69540924326 0.0 
-2.43517173689 -1.75212402868 0.0 
-2.39405168184 -1.80790390913 0.0 
-2.35165419966 -1.86271912139 0.0 
-2.30800191295 -1.91654041695 0.0 
-2.26311811386 -1.96933907764 0.0 
-2.21702675167 -2.02108693094 0.0 
-2.16975241996 -2.07175636504 0.0 
-2.12132034356 -2.12132034356 0.0 
-2.07175636505 -2.16975241995 0.0 
-2.02108693094 -2.21702675166 0.0 
-1.96933907764 -2.26311811386 0.0 
-1.91654041696 -2.30800191295 0.0 
-1.8627191214 -2.35165419966 0.0 
-1.80790390914 -2.39405168184 0.0 
-1.75212402868 -2.43517173688 0.0 
-1.69540924327 -2.47499242379 0.0 
-1.63778981499 -2.5134924949 0.0 
-1.57929648864 -2.55065140719 0.0 
-1.51996047529 -2.58644933326 0.0 
-1.4598134357 -2.62086717194 0.0 
-1.39888746335 -2.65388655841 0.0 
-1.33721506733 -2.68548987406 0.0 
-1.27482915505 -2.71566025589 0.0 
-1.21176301462 -2.74438160546 0.0 
-1.1480502971 -2.77163859753 0.0 
-1.08372499856 -2.79741668821 0.0 
-1.01882144195 -2.82170212273 0.0 
-0.953374258748 -2.84448194277 0.0 
-0.887418370505 -2.8657439934 0.0 
-0.820988970218 -2.88547692952 0.0 
[...]
<PointData Scalars="solution">
<DataArray type="Float64" Name="Real part" format="ascii">
0.20564961141
-0.465114051693
-0.465114051693
-0.465114051693
-0.465114051693
-0.326108273788
-0.107097556469
0.252131295366
-0.121451816129
-0.735394044507
-0.909844374934
-0.990420510625
-0.992544715125
-0.93832887767
-0.850985605985
-0.751165982395
-0.65520260119
-0.574802435354
-0.517595543954
-0.487999544962
-0.487999544961
-0.517595543952
-0.574802435351
-0.655202601186
-0.751165982392
-0.850985605982
-0.938328877668
-0.992544715124
-0.990420510626
-0.909844374935
-0.735394044508
-0.116784921441
0.268828417228
0.630430191116
0.896067060385
0.999895554155
0.902276481081
0.606954238836
0.168255559989
-0.31666842983
-0.73067586191
-0.96869311521
-0.968693115217
-0.730675861926
-0.316668429851
0.168255559969
0.606954238823
0.902276481075
0.999895554155
0.896067060388
0.630430191121
0.268828417232
-0.11678492144
-0.735394044507
-0.909844374934
-0.990420510625
-0.992544715125
-0.93832887767
-0.850985605985
-0.751165982395
-0.65520260119
-0.574802435354
-0.517595543954
-0.487999544962
-0.487999544961
-0.517595543952
-0.574802435351
-0.655202601186
-0.751165982392
-0.850985605982
-0.938328877668
-0.992544715124
-0.990420510626
-0.909844374935
-0.735394044508
-0.116784921441
0.268828417228
0.630430191116
0.896067060385
0.999895554155
0.902276481081
0.606954238836
0.168255559989
-0.31666842983
-0.73067586191
-0.96869311521
-0.968693115217
-0.730675861926
-0.316668429851
0.168255559969
0.606954238823
0.902276481075
0.999895554155
0.896067060388
0.630430191121
0.268828417232
-0.11678492144
-0.0570230657492
-0.115085060317
-0.190635998183
-0.245531415561
-0.283611839327
-0.306667405125
-0.309487244355
-0.302202403468
-0.28614045549
-0.262641143289
-0.235047601572
-0.205821162161
-0.176387499291
-0.149198556059
-0.124162228432
-0.103091005728
-0.0858146363788
-0.0721235752704
-0.0610187524627
-0.0530060761423
-0.0456532672762
-0.0391098403822
-0.0322065056471
-0.0250061604478
-0.0172535828322
-0.00923637115883
-0.000852665252999
0.00749676068931
0.0158997386209
0.0242856082232
0.0301127898015
0.0348768578522
0.0375418977753
0.0384586501016
0.0365407153188
0.0325099645635
0.0274858865872
0.0195468418246
0.011185953591
0.00208987795053
-0.00738663770876
-0.0166021921274
-0.0247826889842
-0.033129556508
-0.0411637911098
-0.0483177569961
-0.0549808866572
-0.0608913214773
-0.0676335623623
-0.0755482124372
-0.0839935334612
-0.0937161328927
-0.105376986836
-0.118993306413
-0.131665081854
-0.147269468166
-0.165349941048
-0.183966541201
-0.204633071882
-0.222047153131
-0.240098564015
-0.258159823923
-0.276047990434
-0.291441900769
-0.304454661288
-0.316692531378
-0.336501037897
-0.349424206744
-0.35188126021
-0.355858905379
-0.360682843868
-0.363440795199
-0.370790719404
-0.366354077331
-0.365109784562
-0.36296793758
-0.358843200338
-0.351175906739
-0.34266778709
-0.328914928183
-0.313330897501
-0.293439003923
-0.268085148219
-0.240220283533
-0.209314948338
-0.173793641396
-0.134617904278
-0.0948522657949
-0.0514156914079
-0.00676622815443
0.0375415129588
0.0816688558679
0.124643004576
0.166586238767
0.204526000227
0.237972953809
0.272933670595
0.296666625918
0.317834622985
0.333069890298
0.345094742824
0.34761786784
0.344713257282
0.341724554571
0.323498951885
0.305019553698
0.284130293795
0.254415457861
0.218694270164
0.180253866856
0.140371795854
0.097007572381
0.0504543303062
0.00388155672219
-0.0433878550887
-0.0900161291698
-0.136209430292
-0.179417179055
-0.21918463244
-0.25573157062
-0.288528823628
-0.310460947091
-0.329447169003
-0.344286970548
-0.34966905932
-0.350828262053
-0.339391964043
-0.322647927801
-0.299703199719
-0.27171046994
-0.236756218369
-0.196846308292
-0.153373797571
-0.0596835748095
-0.0120940664128
0.0361461357734
0.0801814698006
0.121869779325
0.15889372059
0.194298536722
0.217984581017
0.236618432787
0.247660990693
0.251277754877
0.244705168117
0.23108768915
0.206848647233
0.174812970263
0.134364422286
0.0846351727019
0.0281258431278
-0.0354260903741
-0.104561160108
-0.179534697397
-0.260525755276
-0.344382184749
-0.425128928904
-0.510694638671
-0.595043063855
-0.677082296751
-0.757740195216
-0.828366960423
-0.894714372725
-0.971230806025
-1.01694822991
-1.06111102123
-1.09997787229
-1.13069057346
-1.14010804922
-1.14532714546
-1.1541110251
-1.12316874902
-1.10283332798
-1.07271810122
-1.02921414416
-0.961498245121
-0.90076136998
-0.838570078967
-0.762651263224
-0.682856629217
-0.60927728996
-0.516409461223
-0.433130510924
-0.348626776524
-0.263525392847
-0.182137478007
-0.104001111437
-0.0298722190697
0.0389970177271
0.10179704575
0.157560236736
0.205578517472
0.248861286723
0.278945240323
0.299918639802
0.315869282888
0.32150302225
0.313932865423
0.302076647435
0.28023098672
0.217733981111
0.179370005746
0.13098802213
0.0833624742429
0.03408279454
-0.0157388291649
-0.0656123650138
-0.11139778853
-0.153799386715
-0.191849172335
-0.223018493538
-0.248943452659
-0.267455729877
-0.278843590011
-0.283290295376
-0.27861175499
-0.268025657176
-0.251809930726
-0.230519970631
-0.202848811944
-0.173347276944
-0.139526412316
-0.102625094513
-0.0639178086584
-0.025275619542
0.0140927378386
0.0530849944027
0.0911688665037
0.127171388741
0.162720458936
0.197894062003
0.226477079156
0.252116159459
0.276778889781
0.295273601457
0.306876094548
0.316328539756
0.322098754604
0.315606548153
0.309135529349
0.294113557109
0.275031690554
0.24504241249
0.217032737964
0.18547500449
0.148951241353
0.112295233054
0.0751035351737
0.0367461788567
0.000352805926916
-0.0340686368151
-0.0664390572586
-0.0971657806189
-0.125240099751
-0.153284984318
-0.17590008001
-0.201382205598
-0.227414603363
-0.253063656017
-0.284743363655
-0.3126172975
-0.342957344426
-0.379491459282
-0.416701738025
-0.447684411409
-0.484851714801
-0.516112724002
-0.467096101975
0.224550371117
0.388964001922
-0.488238652431
-0.948454597253
0.381773084952
-0.201554974013
-0.151542401097
-0.257256977228
0.244032675335
-0.66766050622
-0.365690947324
0.329564026512
-0.212081612808
-0.380360543659
0.440334987052
0.890728623878
-0.32598553102
-0.401482464468
-0.239383169462
-0.340760725267
0.328935958445
-0.121207004542
0.415567706199
0.60320303991
-0.281439384342
0.71935240683
-0.447122455936
0.57125034243
0.00298259146909
0.259515796437
0.323464514333
-0.406568300583
0.511382979037
0.587072371943
-0.177411305173
0.0925222611302
0.363255786818
-0.343559146024
0.373831951114
0.130667844901
0.0813054558251
0.648382004832
-0.155042966146
0.0838246027043
0.070257151624
0.690610904776
-0.183924790119
0.130904627246
0.406441867329
1.02467521567
-0.546131654803
-0.160463169289
0.993317676225
0.239378002036
-0.357426693534
-0.394201660451
-0.450656861071
0.650455773105
0.564332429767
-0.236591843935
0.35531630014
-0.220229620262
0.406055480643
0.866840098278
0.479149939406
0.0708999387667
-0.40925620086
-0.016883622636
0.261590896152
0.307549474079
0.368809785497
-0.406608383321
0.167358251242
0.0780917499562
-0.393881008272
0.352525856253
-0.0665556407929
-1.13535509045
0.325170948638
0.102020120578
-0.249758421749
-0.204040972564
-0.381983136437
0.236972256894
0.391628813034
0.442168167389
-0.213389731335
0.04659762476
0.460240843493
0.0652445132337
-0.0100862321811
-0.335980924623
-0.417679601131
-0.576870992929
0.22450731777
0.551769227114
0.110440757093
0.383263578535
-0.345591811622
-0.387075912959
-0.752544679669
-0.183127995979
0.413221537614
0.395993811791
-0.424222345882
-0.397554205535
0.0460091034625
-0.0161698151007
-0.122644419786
0.0701397021691
0.352831324984
-0.185856433393
0.245542541926
0.0339982684527
0.0109791651277
0.0351690460052
0.240845276191
-0.266819618441
-0.491280276818
-0.37851422777
0.115330612702
-0.4053774945
0.118894588163
0.529223310964
-0.0201960552998
0.0774257190374
-0.337245431284
-0.165210134741
0.44432886485
0.43771230957
-0.0650938057607
0.609316207009
-0.080009481062
0.240645917341
-0.216704297124
-0.304354053615
0.193883504912
0.463502589958
-0.344735305825
-0.15397595184
0.52332462015
0.23032371426
0.174477194493
0.377948656529
0.617235421894
-0.482769695401
0.131129147544
-0.480918342688
-0.39766021849
1.08596778934
-0.380863787092
-0.30713962821
-0.353630604363
0.654018479412
0.229940056082
0.186480780714
-0.164166198835
0.0371591748576
-0.0489676517591
0.0997973938952
-0.166904131075
-0.32017787498
0.342548969797
0.207567467424
0.441090207414
0.341275694996
-0.344640762219
-0.254252004734
0.231159619969
0.221291915937
-0.216316578915
0.475965268714
0.334763939644
0.270056041836
-0.349587683198
-0.208441508615
-0.519737425408
-0.269997073292
0.362642798083
0.236892114944
-0.0184201230741
-0.198303635
0.383683423406
0.205592008587
0.32160322957
0.425718290452
-0.370546872726
-0.264618078168
0.282046369966
0.0602988589993
-0.126024423497
-0.53740769681
0.301241623367
-0.0423425687492
-0.317031539481
0.153196941996
0.28753110472
-0.317310746585
0.457174134203
0.627598928508
0.567000729243
-0.0742400428921
-0.508871672399
0.213527718424
-0.0161414824743
0.290417394933
-0.171806999598
0.798278059755
-0.26421344619
-0.322158837514
-0.137336466132
0.367708530194
0.349072410829
0.300624818872
-1.02817466019
-0.652539742545
0.0671457319378
-0.0190495820263
0.677342048901
0.389844241249
0.081931527053
-0.391776553756
0.404717661948
-0.0489960559254
0.518993256117
0.424295802002
-0.470583939658
-0.504374446336
-0.646271510946
0.752219357975
0.220118814585
0.19269348443
-0.102118688948
0.0546644764469
0.156730189414
-0.21267073378
-0.186032236835
0.837465663178
-0.170613994175
0.212373641692
-0.130713921411
0.123386565102
0.169144931619
-0.276688343786
0.0871752111988
-0.474852705283
0.0669520466009
-0.36416107224
0.18316112874
0.0393460534257
-0.477306672709
0.340695854936
-0.29239926017
-0.0619034531372
0.394651531612
-0.0216179159442
-0.0706662194556
0.189219198511
-0.276426162821
0.147402171762
0.469199227083
-0.198045192406
-0.0229270282415
-0.694923547467
0.475531470113
0.416955347383
-0.204511247223
-0.237469300931
0.58472812498
0.173168218903
0.190442166244
-0.36125630787
1.09544710259
-0.238992686375
-0.308378304772
0.201998007736
0.388902890372
0.716229590103
-0.182706522631
0.487661785006
0.249752317954
0.864665443962
-0.511744054403
-0.268947537618
0.137825006026
0.151648701699
0.408200554564
0.289228303976
-0.065242664532
0.270663457753
0.254094832684
-0.0437996147954
-0.471868210729
0.390823965726
0.560166106321
0.937973393131
0.391812789105
0.173316617374
-0.498946552509
0.392685821641
0.0774189352531
0.619646931317
-0.114915764944
-0.702895088201
0.368974502412
-0.510543475966
0.354403839591
0.409130068408
-0.353513628231
0.257385121116
0.0914410967203
0.057271496429
0.117643889581
0.317472657065
0.365672566107
0.24711612715
-0.418533033119
-0.363084232612
0.255179090094
-0.0550474645801
0.0028885275554
-0.0462642415628
-0.517735929419
-0.399324344741
0.31131782755
-0.163514159141
0.0744502672573
-0.0224663732401
0.452335583945
-0.349019316771
0.239508920408
0.401330611222
-0.283024532116
0.395329767669
-0.109874773476
0.0532130414812
0.283186323187
-0.878523015551
-0.101802725221
-0.471699695548
-0.426243147157
0.323600053621
0.250513017306
-0.279596589567
-0.511520865754
-0.159328516484
0.263751593089
0.146761678525
-0.505716872979
-0.320734476561
0.439109127508
-0.218955740282
-0.0358951204733
-0.133548055077
0.15120970031
0.376563272366
-0.933097092049
-0.245188429097
0.0355819907296
0.415727895238
0.560679714765
-0.878694257501
0.411287130522
-0.36405328499
0.124090727463
-0.29922892399
-0.46446083578
-0.444491427233
0.407679709283
-0.359035583038
-0.063869153833
-0.505802710298
0.40206875523
-0.386811690733
-0.231118498596
-0.186819994232
1.04951272124
-0.386031106934
0.153645849833
-0.132780417878
-0.500922019185
-0.385280838996
0.163105493945
0.110178841224
-0.654250257189
-0.0254782034002
-0.285663003094
0.564731692369
-0.480995709756
-0.486751942753
0.230185358962
0.24112693116
0.413118642382
-0.285540467808
-0.0973240369038
-0.299218963429
0.275724826026
0.205342635518
-0.31785505829
0.0386549364638
-0.349246630321
0.262191193986
0.352162662946
-0.0270613062736
0.183193969648
-0.230817181474
0.364695879653
0.0107132899492
-0.483621858345
0.431305219907
-0.491192823122
0.222724521554
-0.232800031797
-0.315671676099
-0.189520028841
0.367391448727
-0.34414041359
0.611419339255
0.343221890542
-0.131370225564
-0.297662435151
0.293093731994
0.417803578678
-0.831973067444
-0.278947560874
0.431101302064
-0.609605811571
-0.610698017301
-0.0283224563593
0.28139265311
-0.42168448286
0.378944557566
0.0993726099019
-0.689169209032
0.0988536933266
0.230922297304
-0.232044044556
-0.280152747433
0.174934652365
0.199508367149
0.345528134776
-0.0788001187358
-0.25715402003
0.291622908154
0.482714264019
0.266429567613
-0.13380760565
0.0604600949888
0.43620293258
-0.189578319833
0.20248931187
-0.295291023247
0.0649809212946
0.036800099871
-0.16372334425
-0.353012265399
-0.25302411299
0.356965474427
0.036824566917
0.0422842890637
0.838732200628
0.170919355607
-0.347386061463
0.324951157526
-0.325113263362
0.0502646389359
-0.551128013862
0.295459536136
-0.317496509895
-0.183399824922
0.430556989861
0.145850104783
-0.837324350674
0.00026439123004
0.58317947815
0.380437351162
-0.271469837164
-0.067030938884
0.21795602856
-0.121403765656
0.337956350531
-0.0523509320226
0.243793821659
-0.351166464402
0.549469465605
0.521008293664
-0.497113940683
0.231936893935
-0.251499018116
-0.257581945927
0.236861939393
0.659101345415
-0.632969637217
-0.593240970851
0.691410406121
0.321504817663
-0.0517661986948
0.278684081207
-0.0267445122947
-0.263783288373
0.501363677826
0.441682334652
-0.496731980054
0.155014818364
-0.277563227894
0.0853412868887
-0.243567673273
-0.151919209429
0.13673480797
0.317277559409
0.30079149665
-0.694521917818
-0.838742106135
0.399013976468
-0.491449519235
0.302187521805
-0.101972954984
-0.202233895006
0.37459888007
-0.685929751171
0.301977995771
0.737308702732
-0.542043008803
0.38488392896
0.223795455098
0.608217033368
-0.37198937251
0.252855411787
-0.298005926611
-0.259511891837
1.00162146714
-0.497795664909
0.148628289985
0.441110127455
0.151026022853
0.0581263159362
-0.162144748313
-0.337216693312
-0.268505370517
0.251598473699
-0.0946738357117
-0.359486731828
0.272732323105
0.265880981559
-0.164330947406
0.254787013535
0.519402654639
0.279063280661
-1.14345458463
0.331461923053
0.403455126671
-0.195215297181
0.36820634642
0.190341087467
-0.201951920059
0.00826620853758
0.262829123733
0.881214814954
-0.375695891781
-0.508148129492
0.667452654789
0.295458825058
0.568838808859
-0.248578865756
0.422738183363
0.638815229789
0.00500493296031
-0.242897308675
-0.310114365509
0.987537361242
-0.212227199038
-0.287257864394
-0.489365679073
0.334715301261
0.101683754891
0.0898450779762
0.419524953008
0.490358052956
-0.0397391023858
-0.307030631485
0.0773863350979
1.00307428853
0.0561174486503
0.194036236542
-0.22885858563
0.303892856548
0.429053198295
-0.269792332532
0.305249802986
0.40459705038
-0.328504081047
-0.134022048401
-0.315847783209
0.398595818911
0.0742447881947
-0.34467762365
0.111518641621
1.07310815992
-0.558246305399
0.0933102883818
0.138709936282
0.179625387235
0.354417874371
-0.0811341560995
0.533844122976
0.789239961844
-0.31706739305
-0.345865422721
0.401788468055
-0.692254209163
-0.412276199757
0.550192118971
-0.221465074581
0.517337250077
-0.443315888906
-0.338028655634
-0.132753941213
0.267419225498
0.249211189678
0.420287735611
-0.350667644071
0.488871957926
0.276413570309
0.184586834413
0.338741715709
-0.287188016758
-0.35468912663
-0.193396690855
0.140283668853
-0.386437640206
0.302389548905
0.354192724987
0.0585843116601
-0.359967967808
0.344178671045
-0.587883248781
-0.378984097252
0.545409596181
0.65310093116
-0.286198656837
-0.0683801673578
0.278560542118
0.168713336556
-0.384480331892
0.10239756073
-0.199587889601
-0.184604249798
0.0673597893996
-0.177908341717
-0.485918579221
0.117085917548
-0.575110286849
0.261199210511
-0.349488746281
-0.0741011291864
-0.324627892987
0.0629985880192
0.0780477178712
0.326816923198
0.0381240021761
-0.267172000655
0.172155478557
0.197722674142
0.322133777151
-0.441246119491
-0.123166417958
-0.0690831239377
-0.154944780035
0.0187188759275
1.03754586332
-0.3643862345
0.378747937425
-0.772163461664
-0.395681125031
-0.300617361863
0.614054022294
0.193669088806
0.077053402202
-0.401827527487
-0.251822137844
0.389264420279
0.169306988662
0.349567151497
-0.0412809167735
-0.174926093095
-0.00125560405634
-0.112844767961
-0.333102622494
0.0156233159036
-0.198827303377
0.553435173237
0.240423699279
-0.422892098262
0.304551659736
-0.0896910875753
0.414741846023
-0.559409121394
-0.534667047546
-0.212075184954
-0.233873654801
-0.282806379948
0.257216190165
0.347682863555
-0.295683060902
0.751319803043
-0.83138404886
0.41542543094
-0.376770484878
1.17369716732
0.0509765799169
-0.301042053745
0.414895408334
0.304014119376
-0.198393122061
0.41700673889
-0.762598800634
-0.20587670138
-0.297971143823
0.452554213711
0.207899838514
0.808677476545
0.0904455793224
-0.31868054173
-0.204537435599
0.282129244331
0.448677376162
0.131393577458
0.0627276285337
0.0239732790575
0.385042446434
0.0423043037136
-0.869093303131
0.514374611557
-0.27986989211
-0.108192793462
0.134110777166
0.203082713165
0.392918371964
-0.0615950502358
0.645871073647
-0.0655519050427
0.178015662142
0.312404306297
0.469419232715
0.427511950725
0.567406410065
-0.382813228054
-1.06010269487
0.347644046176
0.155411620628
0.125590440402
-0.470210397182
0.312342032149
0.254851289338
-0.418478332571
-0.0687938509485
-0.371259798836
-0.245243324752
-0.171477632558
-0.359992474247
0.269190248072
0.128049364986
-0.228378056746
0.194406928438
-0.415158791236
0.485616197816
0.785488647422
-0.794162365453
0.277166471627
0.186042646642
0.360821503337
0.0275374106018
0.242053997751
-0.001561092986
-0.274769243236
-0.346933638186
0.268384126654
-0.369620582141
0.0267648367649
0.442331100731
0.0125663793233
-1.15317248111
0.24486744733
1.05175228906
-0.0150638246867
-0.432296622716
-0.568825200626
-0.265942791638
-0.446310349442
0.482331749114
0.583318894081
0.166554278973
0.426804988782
0.20604649853
-0.739094327398
-0.446819739844
0.254482158513
0.318043659826
-0.0865387328404
0.0728954259787
-0.700736579307
0.301832267112
0.335138436246
0.0572188103037
0.425864964162
0.556887697856
-0.319403299101
-0.0281142726637
0.476604069644
-0.0385475516355
0.132195268729
0.55857559666
0.437540433719
-0.410293092535
-0.00851444742337
0.0184101361162
0.403798065658
0.0331286212708
-1.03367134038
-0.398152636352
0.603558724578
0.054303236238
0.201498246746
-0.240457831196
-0.496496290485
0.937045291475
0.444832414485
-0.312037614519
0.243625917029
0.451118043209
0.439462303639
-0.203046881826
0.0221224850361
-0.217978412457
-0.00228434684995
0.0755020901477
0.297593270978
0.361588778678
-0.284257015216
0.374594078941
-0.215762279218
-0.355502390123
0.301285413996
-0.367722429414
0.0860312628369
0.223181373407
-0.679922083599
0.432237306318
0.207593129169
-0.351721770296
0.418782038997
0.308523130331
-0.0560288281127
-0.193587541845
0.193997724547
-0.178560210229
0.316887081277
0.146239895504
-0.277944492279
-0.106166191575
-0.475783713892
0.167463395096
-0.0983131984577
-0.268556918642
0.285495814246
-0.475000035867
0.102997528837
-0.31805311458
0.283037688961
-0.378672848573
0.250460877519
-0.180633285357
-0.296816573517
-0.045909645119
-0.354566362197
0.27283776637
-0.676644652694
0.341784865855
0.094367623082
0.272777362273
0.624735950509
-0.614802253288
0.436235226922
0.465597667647
0.107960962674
0.199531125403
-0.092228970441
0.202974123106
0.457362539437
0.290089605526
-0.128646682456
0.426732531883
-0.265059356083
0.424842047167
0.0669361339505
0.417537808789
-0.310371308915
-0.448280650313
-0.176408561125
-0.550051615156
0.166939375539
-0.212271742467
0.0130808945021
-0.0602701466863
-0.109886522205
0.0567050342883
0.41785842645
-0.881998974293
-0.243978061248
0.0240022003086
0.154269031204
0.749875158364
-0.506694916631
-0.883942554125