<VTKFile type="UnstructuredGrid" version="1.0" byte_order="LittleEndian" header_type="UInt64">
<UnstructuredGrid>
<Piece NumberOfPoints="7796" NumberOfCells="15181">
<Points>
<DataArray NumberOfComponents="3" type="Float64">
2.0 1.0 0.0 
1.0 1.8 0.0 
0.0 1.0 0.0 
1.0 0.2 0.0 
0.7 1.1 0.0 
1.1 1.1 0.0 
1.2 1.1 0.0 
1.4 1.1 0.0 
0.7 0.9 0.0 
1.4 0.9 0.0 
1.5 1.0 0.0 
0.5 1.0 0.0 
0.65 1.2 0.0 
0.6 1.15 0.0 
0.6 1.1 0.0 
0.65 0.8 0.0 
0.6 0.85 0.0 
0.6 0.9 0.0 
1.05 1.2 0.0 
1.15 1.17 0.0 
1.1 1.185 0.0 
1.99966029977 1.02085047809 0.0 
1.99864194805 1.04167884521 0.0 
1.99694718336 1.0624631147 0.0 
1.99457970895 1.08318154621 0.0 
1.99154465211 1.10381276335 0.0 
1.98784850884 1.12433586406 0.0 
1.98349907581 1.14473052008 0.0 
1.97850536877 1.1649770763 0.0 
1.97287753419 1.18505662435 0.0 
1.96662675157 1.20495107421 0.0 
1.95976512993 1.22464321277 0.0 
1.95230560381 1.24411674184 0.0 
1.94426182303 1.26335631779 0.0 
1.93564804925 1.2823475622 0.0 
1.92647904795 1.30107707845 0.0 
1.91676999267 1.31953243896 0.0 
1.90653636174 1.33770218818 0.0 
1.89579385312 1.35557581264 0.0 
1.88455830436 1.37314370953 0.0 
1.87284560217 1.39039717603 0.0 
1.86067162505 1.40732835213 0.0 
1.8480521827 1.42393017948 0.0 
1.83500294429 1.44019638019 0.0 
1.82153940612 1.45612139029 0.0 
1.80767685473 1.47170031051 0.0 
1.7934303 1.48692889602 0.0 
1.77881448017 1.50180347099 0.0 
1.76384384681 1.51632087864 0.0 
1.74853251411 1.53047847101 0.0 
1.73289415956 1.54427413733 0.0 
1.71694229053 1.55770601693 0.0 
1.70068993766 1.57077273166 0.0 
1.68414980096 1.58347321438 0.0 
1.6673342138 1.59580670535 0.0 
1.65025514482 1.6077727189 0.0 
1.63292424242 1.61937098588 0.0 
1.61535277404 1.63060147211 0.0 
1.59755166804 1.64146432682 0.0 
1.57953153523 1.65195985137 0.0 
1.56130264952 1.6620884947 0.0 
1.54287498209 1.67185081859 0.0 
1.52425818849 1.68124749185 0.0 
1.50546165083 1.6902792569 0.0 
1.4864944572 1.69894693046 0.0 
1.46736543608 1.70725137784 0.0 
1.44808316154 1.71519350348 0.0 
1.42865595758 1.72277424194 0.0 
1.40909192477 1.72999454117 0.0 
1.38939894434 1.73685535607 0.0 
1.36958468845 1.74335764014 0.0 
1.34965663456 1.7495023364 0.0 
1.32962207515 1.75529037068 0.0 
1.3094881388 1.76072264252 0.0 
1.28926178457 1.76580002402 0.0 
1.26894982878 1.77052335029 0.0 
1.24855894878 1.77489341677 0.0 
1.22809569415 1.77891097486 0.0 
1.20756649749 1.78257672815 0.0 
1.18697768514 1.78589132898 0.0 
1.16633548762 1.78885537556 0.0 
1.14564605088 1.79146940928 0.0 
1.12491544478 1.79373391276 0.0 
1.10414967093 1.79564930809 0.0 
1.08335467805 1.79721595474 0.0 
1.06253636452 1.79843414881 0.0 
1.04170059381 1.79930412154 0.0 
1.02085320031 1.7998260387 0.0 
0.979146799693 1.7998260387 0.0 
0.95829940619 1.79930412154 0.0 
0.937463635482 1.79843414881 0.0 
0.916645321953 1.79721595474 0.0 
0.895850329067 1.79564930809 0.0 
0.875084555225 1.79373391276 0.0 
0.854353949125 1.79146940928 0.0 
0.833664512381 1.78885537556 0.0 
0.813022314858 1.78589132898 0.0 
0.792433502514 1.78257672815 0.0 
0.771904305853 1.77891097486 0.0 
0.751441051218 1.77489341677 0.0 
0.731050171226 1.77052335029 0.0 
0.710738215428 1.76580002402 0.0 
0.690511861198 1.76072264252 0.0 
0.67037792485 1.75529037068 0.0 
0.650343365445 1.7495023364 0.0 
0.630415311555 1.74335764015 0.0 
0.610601055665 1.73685535607 0.0 
0.59090807523 1.72999454117 0.0 
0.57134404242 1.72277424195 0.0 
0.551916838461 1.71519350348 0.0 
0.532634563918 1.70725137784 0.0 
0.513505542805 1.69894693046 0.0 
0.494538349169 1.6902792569 0.0 
0.475741811512 1.68124749185 0.0 
0.457125017911 1.67185081859 0.0 
0.438697350481 1.6620884947 0.0 
0.420468464776 1.65195985137 0.0 
0.402448331967 1.64146432682 0.0 
0.384647225959 1.63060147211 0.0 
0.367075757586 1.61937098588 0.0 
0.349744855178 1.6077727189 0.0 
0.332665786206 1.59580670535 0.0 
0.315850199038 1.58347321438 0.0 
0.299310062339 1.57077273166 0.0 
0.283057709478 1.55770601693 0.0 
0.267105840444 1.54427413733 0.0 
0.251467485891 1.53047847101 0.0 
0.236156153192 1.51632087864 0.0 
0.221185519828 1.501803471 0.0 
0.206569699999 1.48692889603 0.0 
0.192323145277 1.47170031052 0.0 
0.178460593881 1.45612139029 0.0 
0.16499705571 1.4401963802 0.0 
0.151947817304 1.42393017948 0.0 
0.139328374948 1.40732835213 0.0 
0.127154397831 1.39039717603 0.0 
0.115441695644 1.37314370953 0.0 
0.104206146882 1.35557581265 0.0 
0.0934636382646 1.33770218819 0.0 
0.0832300073312 1.31953243896 0.0 
0.0735209520463 1.30107707845 0.0 
0.0643519507539 1.2823475622 0.0 
0.0557381769666 1.26335631779 0.0 
0.0476943961892 1.24411674184 0.0 
0.0402348700753 1.22464321277 0.0 
0.0333732484343 1.20495107421 0.0 
0.0271224658058 1.18505662435 0.0 
0.0214946312309 1.1649770763 0.0 
0.0165009241887 1.14473052008 0.0 
0.0121514911592 1.12433586406 0.0 
0.00845534788721 1.10381276335 0.0 
0.00542029105111 1.08318154621 0.0 
0.00305281664026 1.0624631147 0.0 
0.00135805194808 1.04167884521 0.0 
0.000339700226691 1.02085047809 0.0 
0.000339700226688 0.97914952191 0.0 
0.00135805194807 0.958321154787 0.0 
0.00305281664023 0.937536885298 0.0 
0.00542029105106 0.916818453789 0.0 
0.00845534788713 0.896187236649 0.0 
0.0121514911591 0.87566413594 0.0 
0.0165009241886 0.855269479922 0.0 
0.0214946312307 0.835022923697 0.0 
0.0271224658056 0.814943375654 0.0 
0.033373248434 0.795048925789 0.0 
0.0402348700749 0.775356787231 0.0 
0.0476943961887 0.755883258158 0.0 
0.0557381769661 0.736643682212 0.0 
0.0643519507532 0.717652437797 0.0 
0.0735209520455 0.698922921548 0.0 
0.0832300073303 0.680467561043 0.0 
0.0934636382637 0.662297811816 0.0 
0.104206146881 0.644424187356 0.0 
0.115441695643 0.626856290468 0.0 
0.12715439783 0.609602823967 0.0 
0.139328374947 0.592671647869 0.0 
0.151947817302 0.576069820525 0.0 
0.164997055708 0.559803619807 0.0 
0.178460593879 0.543878609708 0.0 
0.192323145275 0.528299689487 0.0 
0.206569699997 0.513071103976 0.0 
0.221185519825 0.498196529007 0.0 
0.23615615319 0.483679121358 0.0 
0.251467485888 0.469521528992 0.0 
0.267105840442 0.45572586267 0.0 
0.283057709475 0.442293983073 0.0 
0.299310062336 0.429227268342 0.0 
0.315850199035 0.416526785621 0.0 
0.332665786203 0.404193294649 0.0 
0.349744855175 0.392227281097 0.0 
0.367075757583 0.380629014119 0.0 
0.384647225957 0.369398527892 0.0 
0.402448331965 0.358535673184 0.0 
0.420468464774 0.348040148633 0.0 
0.438697350479 0.337911505303 0.0 
0.457125017909 0.328149181407 0.0 
0.475741811509 0.31875250815 0.0 
0.494538349167 0.309720743102 0.0 
0.513505542803 0.301053069543 0.0 
0.532634563916 0.292748622158 0.0 
0.551916838459 0.28480649652 0.0 
0.571344042418 0.277225758055 0.0 
0.590908075228 0.270005458832 0.0 
0.610601055663 0.263144643926 0.0 
0.630415311553 0.256642359855 0.0 
0.650343365443 0.250497663604 0.0 
0.670377924849 0.244709629317 0.0 
0.690511861196 0.239277357481 0.0 
0.710738215427 0.234199975979 0.0 
0.731050171225 0.229476649708 0.0 
0.751441051217 0.225106583234 0.0 
0.771904305852 0.221089025139 0.0 
0.792433502513 0.217423271853 0.0 
0.813022314857 0.21410867102 0.0 
0.833664512381 0.211144624435 0.0 
0.854353949125 0.208530590715 0.0 
0.875084555225 0.206266087243 0.0 
0.895850329067 0.204350691907 0.0 
0.916645321953 0.202784045258 0.0 
0.937463635482 0.201565851186 0.0 
0.95829940619 0.200695878464 0.0 
0.979146799693 0.200173961299 0.0 
1.02085320031 0.200173961299 0.0 
1.04170059381 0.200695878464 0.0 
1.06253636452 0.201565851186 0.0 
1.08335467805 0.202784045258 0.0 
1.10414967093 0.204350691907 0.0 
1.12491544477 0.206266087243 0.0 
1.14564605087 0.208530590715 0.0 
1.16633548762 0.211144624435 0.0 
1.18697768514 0.21410867102 0.0 
1.20756649749 0.217423271853 0.0 
1.22809569415 0.221089025139 0.0 
1.24855894878 0.225106583234 0.0 
1.26894982877 0.229476649708 0.0 
1.28926178457 0.234199975979 0.0 
1.3094881388 0.23927735748 0.0 
1.32962207515 0.244709629316 0.0 
1.34965663456 0.250497663604 0.0 
1.36958468845 0.256642359855 0.0 
1.38939894434 0.263144643925 0.0 
1.40909192477 0.270005458831 0.0 
1.42865595758 0.277225758054 0.0 
1.44808316154 0.284806496519 0.0 
1.46736543608 0.292748622158 0.0 
1.48649445719 0.301053069542 0.0 
1.50546165083 0.309720743101 0.0 
1.52425818849 0.318752508149 0.0 
1.54287498209 0.328149181405 0.0 
1.56130264952 0.337911505302 0.0 
1.57953153522 0.348040148632 0.0 
1.59755166803 0.358535673182 0.0 
1.61535277404 0.36939852789 0.0 
1.63292424241 0.380629014117 0.0 
1.65025514482 0.392227281095 0.0 
1.66733421379 0.404193294647 0.0 
1.68414980096 0.416526785619 0.0 
1.70068993766 0.42922726834 0.0 
1.71694229052 0.442293983071 0.0 
1.73289415956 0.455725862667 0.0 
1.74853251411 0.46952152899 0.0 
1.76384384681 0.483679121356 0.0 
1.77881448017 0.498196529004 0.0 
1.7934303 0.513071103973 0.0 
1.80767685472 0.528299689484 0.0 
1.82153940612 0.543878609706 0.0 
1.83500294429 0.559803619805 0.0 
1.8480521827 0.576069820523 0.0 
1.86067162505 0.592671647867 0.0 
1.87284560217 0.609602823965 0.0 
1.88455830436 0.626856290466 0.0 
1.89579385312 0.644424187354 0.0 
1.90653636174 0.662297811815 0.0 
1.91676999267 0.680467561041 0.0 
1.92647904795 0.698922921547 0.0 
1.93564804925 0.717652437796 0.0 
1.94426182303 0.736643682211 0.0 
1.95230560381 0.755883258156 0.0 
1.95976512992 0.77535678723 0.0 
1.96662675157 0.795048925788 0.0 
1.97287753419 0.814943375653 0.0 
1.97850536877 0.835022923697 0.0 
1.98349907581 0.855269479922 0.0 
1.98784850884 0.875664135939 0.0 
1.99154465211 0.896187236649 0.0 
1.99457970895 0.916818453788 0.0 
1.99694718336 0.937536885298 0.0 
1.99864194805 0.958321154787 0.0 
1.99966029977 0.97914952191 0.0 
1.08 1.1 0.0 
1.06 1.1 0.0 
1.04 1.1 0.0 
1.02 1.1 0.0 
1.0 1.1 0.0 
0.98 1.1 0.0 
0.96 1.1 0.0 
0.94 1.1 0.0 
0.92 1.1 0.0 
0.900000000001 1.1 0.0 
0.880000000001 1.1 0.0 
0.86 1.1 0.0 
0.84 1.1 0.0 
0.82 1.1 0.0 
0.8 1.1 0.0 
0.78 1.1 0.0 
0.76 1.1 0.0 
0.74 1.1 0.0 
0.72 1.1 0.0 
1.38 1.1 0.0 
1.36 1.1 0.0 
1.34 1.1 0.0 
1.32 1.1 0.0 
1.3 1.1 0.0 
1.28 1.1 0.0 
1.26 1.1 0.0 
[...]
<PointData Scalars="solution">
<DataArray type="Float64" Name="Real part" format="ascii">
0.159491069223
-0.148032401632
0.338742358559
0.277806965328
-0.758983731418
0.127963689627
-0.999843308648
0.432177944885
-0.964966028492
-0.834223360507
0.432177944885
-0.964966028492
-0.154251449888
-0.765414051945
0.903692205092
0.848570274785
0.748057529689
0.748057529689
-0.154251449888
-0.525321988818
0.749235170956
0.146378681682
0.227497362731
0.120676083273
0.0271535916503
-0.0355629565246
-0.0651925809945
-0.0652504887089
-0.0412053874988
0.00236164609152
0.0603719536907
0.125279233643
0.195574927522
0.267856963026
0.33258377208
0.395769356543
0.452436445825
0.504464398017
0.547905570625
0.585779477344
0.611889991379
0.63759517412
0.654844267233
0.664770869163
0.665563696081
0.658515298068
0.646020818571
0.618390168797
0.585389660155
0.536494137115
0.477157174983
0.409455561956
0.329141694375
0.243857247659
0.153179583482
0.0608662389987
-0.0305076389908
-0.115778935263
-0.195142612872
-0.254234625359
-0.302557933644
-0.334448449841
-0.339890285828
-0.326838089816
-0.296370821085
-0.245008900507
-0.179273616186
-0.0984263939462
-0.0135015394014
0.0747291625286
0.16388792294
0.242073168112
0.311898135744
0.368204919362
0.408452098934
0.426964434594
0.427870439212
0.413723865665
0.374888561167
0.329931985734
0.270886019825
0.20651609605
0.134903230251
0.0677266661786
0.00483298159954
-0.0499331996947
-0.0955941574377
-0.127384843563
-0.152094985464
-0.142783029996
-0.124481612519
-0.0919042660909
-0.0528200830705
-0.00661428823764
0.0441707295076
0.0939591464169
0.144752588444
0.189597740021
0.22971375488
0.262118989737
0.286002086654
0.299523598318
0.305200414848
0.294944215384
0.278914026925
0.25294807612
0.215209863558
0.171558087806
0.121541759412
0.0670663201699
0.0117491305913
-0.0440649071904
-0.0989899231133
-0.147556859457
-0.189836157253
-0.22632767709
-0.249950350863
-0.26416055719
-0.268913353561
-0.260318922488
-0.238593701883
-0.208380917105
-0.167921169146
-0.120584052725
-0.0647043015513
-0.00459194183126
0.0579305588847
0.123028997564
0.184405814145
0.242506274218
0.297444996708
0.346463624674
0.388697313742
0.422364930208
0.453833150233
0.46634443461
0.482040233192
0.488953364958
0.484820279221
0.481487491626
0.473852181951
0.463072536457
0.449645640104
0.434949955625
0.425757749614
0.408611750214
0.397732443379
0.389048800372
0.382691194538
0.374970950957
0.370195498629
0.364900564066
0.358779220168
0.356009455226
0.347441313191
0.327202679732
0.312013944077
0.296710163538
0.271903096245
0.244380910793
0.215877499389
0.182846243395
0.148003939095
0.112067032267
0.0770720619628
0.0435037064462
0.0116667717387
-0.0162355261041
-0.0385582461096
-0.0559186717722
-0.0668035151882
-0.0720384539459
-0.0698134412155
-0.064428609875
-0.053699607084
-0.0402463910433
-0.0254037071715
-0.0107085318486
0.00299214196284
0.0144366038893
0.0213811524907
0.0240270767492
0.023390106599
0.0189593377123
0.0116992354628
0.00250320467446
-0.00758606637016
-0.0167568243883
-0.0233507166091
-0.0269545164041
-0.026900282711
-0.0210327702805
-0.00994471566024
0.00477905302723
0.0204556524284
0.0405165427881
0.0600817606736
0.0790807123869
0.0944948359807
0.106701441088
0.114077071232
0.116027129667
0.115644813681
0.107707125603
0.0988725584896
0.089696968671
0.0816989150346
0.0739336354346
0.0722434368976
0.0756703078911
0.0859772590762
0.102366045146
0.125439480651
0.152482240287
0.185732252915
0.216938769115
0.248464083395
0.275350511288
0.298445590655
0.309374897
0.311459543159
0.300820189508
0.242774653087
0.196728037864
0.1365256703
0.0701717803309
-0.00152964991614
-0.0765407000847
-0.152937679937
-0.222831922111
-0.285807453019
-0.339273273641
-0.380509372784
-0.404005716268
-0.415601659737
-0.404568786865
-0.378219970176
-0.336128718037
-0.280730726469
-0.210513853283
-0.129823968371
-0.0440757481911
0.04549222252
0.133953193959
0.218875639105
0.297003951712
0.365197525568
0.424340229167
0.470443329059
0.496639215775
0.50789509195
0.51694136631
0.494771001905
0.475931870939
0.431693594408
0.384872650205
0.328547977309
0.26814952721
0.206454934234
0.138858841885
0.0728704187149
0.00968246192143
-0.050295230045
-0.105210053862
-0.154126668722
-0.196291407103
-0.232395364342
-0.262917941852
-0.290373965603
-0.307885319357
-0.323896965811
-0.336896365578
-0.349616520931
-0.36828275934
-0.378263928461
-0.391035716988
-0.416616215302
-0.433443602086
-0.45864186547
-0.479932907632
-0.498251966578
-0.512905077283
-0.518613964725
-0.49965624448
-0.466500306299
-0.396221776419
-0.307013665931
-0.175930145617
-0.0182749816418
-0.771105024025
-0.92781012604
-0.709296125227
-0.378799862247
0.0115005699268
0.399985314984
0.725321173685
0.936144767428
0.999171686352
0.904451365794
0.66693806166
0.324129902227
-0.0698512417984
-0.452804410633
-0.764269719295
-0.955073644046
-0.995092440566
-0.878008020818
-0.622305440228
-0.268354513881
-0.786618988792
-0.484082106946
-0.105119304416
0.290439524918
0.640144339457
0.888784438293
0.99710501692
0.948004637724
0.74923517096
-0.543799675726
-0.162470050769
0.246019378386
0.613382223815
0.878207149064
0.996223883506
0.947703797868
0.740757901036
0.409980938386
0.0106682550986
-0.390427819763
-0.726256831015
-0.940678892282
-0.997849482237
-0.888211503915
-0.630092926133
-0.26664293238
0.141381244741
0.525770992585
0.822268620347
0.981309192971
0.976306205486
0.808095997637
0.504797944581
0.117113795322
-0.290148040626
-0.648906389718
-0.899188312512
-0.999154663977
-0.932094262456
-0.709217465588
-0.367782156501
0.035134584461
-0.996281158863
-0.940178152004
-0.873428447579
-0.845687273342
-0.873428447578
-0.940178152003
-0.996281158863
0.767874542733
0.978799206088
0.947870365776
0.640144339468
0.142401651003
-0.378065739728
-0.76863450922
-0.0383417498614
-0.203584603851
-0.363185408414
-0.512721060772
-0.648047399105
-0.363185408416
0.127963689624
0.587782813556
0.994049325251
0.974975424659
0.338319210975
-0.154251449879
-0.609055976098
-0.914742357801
-0.996467907558
0.748057529689
0.748057529689
0.748057529689
0.17751772862
0.489744671394
0.551921770694
0.0955234668238
-0.421341572455
-0.834223360504
-0.9994792169
-0.878387362011
-0.550931397494
0.195611947697
0.44238484159
0.580391933672
0.623770367332
0.580391933672
0.44238484159
0.195611947697
-0.659204327679
-0.774817783097
-0.868958297313
-0.939016903715
-0.98305203053
0.502861852715
0.570329160756
0.634148308477
0.693911071122
-0.0863192550401
-0.314338871492
0.575792554562
0.371143204786
-0.0470333134445
-0.106250062081
-0.212747134414
0.413013866292
0.321714363272
0.0940003657363
0.042362908182
0.0342329830126
0.578796193347
-0.0485691311512
-0.2782854749
-0.168725938511
-0.0186410787807
0.345351515865
-0.200328601556
0.14845266015
-0.456485125599
-0.351318069477
0.658819802832
-0.35217681593
0.0731003621937
0.294675862757
-0.326746700177
-0.0881997371088
0.0594576272774
-0.833691179013
-0.418013647383
-2.41258878109e-05
0.0368422869662
-0.319865285105
0.798017592838
0.198664362137
-0.490182888029
-0.340926727286
0.569412222524
-0.429916909249
-0.028742911557
0.329653938608
0.249792937907
-0.613476962036
0.604548131291
-0.016486328677
0.159203530486
0.11978395533
0.267711175938
-0.273781493368
0.455942827901
0.217268946206
-0.520790506741
-0.0855004799398
-0.240780143529
-0.0749082103183
-0.206172802649
-0.286065001967
-0.106598811861
0.337163975802
-0.394512096646
0.0184097189115
-0.241055875235
-0.320041092942
-0.188201797933
-0.0925178038014
0.618913607181
0.571853502879
-0.321269758871
-0.0848693455218
-0.44694925078
-0.283946653005
-0.193797231172
0.0999064330749
-0.0302263575962
0.0528908094055
0.340460557473
0.394188113948
-0.633243790467
-0.4662177144
0.0887576049957
-0.331036182233
-0.248949869009
0.137355266188
-0.177901608855
-0.392608871317
0.541627009842
-0.407438148949
-0.115512829094
-0.156299727458
0.306019710653
0.335076543019
-0.0331933416326
-0.0421010565183
0.381907983503
-0.182032327784
-0.204107610418
0.0979611575606
-0.549900227707
0.55743758107
0.225549172669
-0.558643973046
0.179574726981
-0.419871216666
-0.144287750926
0.433645491311
-0.0101807641276
0.40959965229
-0.00673115245166
-0.27972909644
0.332696549164
0.0504773422764
-0.0432336035685
-0.35201262159
-0.394576967539
0.298766563567
-0.115582918277
0.0156004425129
-0.467703623618
-0.230684634409
-0.204922225581
-0.53336320646
0.752824705846
-0.0604610906302
0.0598717725298
-0.323184782534
0.146465550507
0.0985978142191
-0.0725900299168
-0.0590405934881
-0.344634590155
0.404599835238
-0.0117709207164
-0.432983168834
0.0438991306795
-0.0648644427228
0.35131356806
-0.0973058397197
0.182108091241
0.143845237992
0.730729259527
-0.0456932563169
-0.396883086022
0.429169575799
0.371638435866
-0.017996473186
-0.332668742937
0.0864330790109
-0.410999143481
-0.387129797265
-0.314912955766
-0.0705487203819
0.290710950067
0.0650688442991
0.62157411975
0.200925161601
0.0268991168284
0.257851132892
0.102320681244
0.0769548275402
-0.437281779142
0.0134205867992
0.226750470668
0.209091192179
0.210308067218
-0.0527620622165
-0.573049039449
-0.350437628169
0.482625216467
0.0584439273927
0.262001070784
-0.730615544302
-0.403415897357
0.595253199222
-0.413347361617
0.276950735029
0.0292712297839
-0.423062521252
0.31118188162
0.369023862069
0.388228591097
-0.381562325731
-0.083095478909
-0.281036983348
-0.26235306241
0.0323323907269
-0.121199768078
0.140198534835
0.138738337375
-0.0399925521633
0.110030254327
0.535827987549
0.301552391108
0.211865780094
0.234531451376
0.378264689417
0.221466377577
0.492649738049
-0.657705042375
-0.371204487696
-0.586234199848
0.31539119595
0.00767211830492
-0.0732215525272
0.00445759845699
0.111421608951
-0.407441615243
0.508906795821
0.333278787972
0.23714068379
0.351832218729
-0.168549032544
-0.474025824537
0.184052914988
0.0245462517978
0.326131726127
-0.160761723943
-0.349336336201
-0.119488786079
-0.379417205588
0.179940129892
0.92192077238
0.430273726201
-0.222107120683
0.0501010281197
-0.521896848166
0.192588137669
0.216705101288
-0.363923653205
-0.0330708887635
0.0649434275499
-0.586973604496
0.172989491456
-0.910706491682
0.358476666752
-0.268715094374
-0.509534210074
0.205947547266
-0.0379325470556
0.347575082271
0.0562336939405
-0.210370335718
0.213384810325
-0.0188267866179
0.248057300782
0.110789512771
-0.346081008762
0.323151870714
0.204709320242
-0.17288380176
-0.634252105293
-0.433847626363
-0.124925595297
0.752375697327
-0.0715047414415
0.201288500807
0.457328033015
-0.39614552369
0.0652568188526
-0.26039173915
-0.471142377971
-0.00449185377274
0.082060950992
-0.111926319417
-0.591948944876
-0.557946643429
-0.0755681155052
-0.175140388238
-0.116312085966
-0.288712210474
0.413319764821
-0.304875615335
-0.189057747351
-0.355988735185
-0.0214421849848
0.0224338916154
-0.0677421296969
-0.0837233392793
0.128911946702
-0.27384107427
-0.519524844124
-0.219199755116
0.209832510273
-0.511909609401
-0.110920388
0.0856243238945
-0.268200374553
-0.378480394579
0.641156230688
-0.355282215665
-0.0658434851952
0.100203193052
-0.0612154863265
0.252380913743
-0.625701862577
-0.374563496319
-0.323229736113
-0.328306455274
0.19332843121
-0.167979243297
-0.496302783219
0.566969243036
0.00585636051916
-0.289650666894
0.193348541605
-0.426107117388
0.00862479658382
0.388552822401
0.117124339772
0.349751863441
0.0231880988201
-0.0306079716293
-0.0849088350957
-0.00850692907578
0.276108286596
0.409587808599
0.216349501466
-0.233667319351
0.167531296686
0.161503033297
0.350821872984
0.212557742267
0.163103548503
-0.341837101267
0.254719614096
-0.346314969362
0.199690253008
-0.248063625508
0.1960126394
0.307522764419
0.270956439356
0.151958284427
-0.527462812664
0.419801589745
-0.289023313628
0.554578825478
0.326065905754
0.181232970048
-0.508660390166
-0.160940731703
-0.726313283738
0.103916301434
-0.564420889443
0.135434454858
-0.1939967753
-0.362733635797
-0.448701152242
-0.128158663235
-0.00919678524697
0.0727096505621
0.442355810287
0.304235396421
0.151015087819
-0.36503210648
0.325205772095
0.0588365800916
0.483106456218
-0.219722469638
0.184542410888
0.277158167166
-0.0829679215529
0.299230950975
-0.315615599066
0.562666204275
0.0831894696028
-0.279058944837
0.359922278929
-0.236633486959
-0.197687900545
-0.131311724924
0.274781094393
-0.350678842742
-0.379261025712
0.038928509292
-0.279053390759
-0.583700191209
0.314307333547
0.28904280246
0.261413041855
0.42635815853
-0.461665507157
0.520761111081
-0.453413038156
0.373209866108
-0.365692668963
-0.194151470003
0.232598681254
0.404717516083
0.454413663311
0.160093718345
0.415671297055
0.18911042812
0.208892835263
-0.502497009624
-0.783982006471
-0.086210696509
0.237585772945
-0.0355483587145
-0.63450125524
0.018840128337
-0.26069304327
-0.0632331849825
-0.187698562581
0.678588676466
-0.105216572698
0.13149226801
-0.572271984368
0.0909991187359
0.109688141767
0.468868221039
-0.171243837411
0.559545557505
-0.0423874705683
0.356206082907
-0.166842371377
-0.453793117823
0.210765336781
0.00662955728541
0.338205781827
0.196222109639
-0.129174645409
0.318813648522
0.401917038717
-0.274009097389
0.282050063594
-0.488999558042
-0.307972222027
-0.783425329186
-0.0321072024823
-0.256034266531
0.0662591355182
-0.0948380206056
-0.124117525653
-0.291043788119
0.0175229049854
0.30082340759
-0.29430008221
0.147515178061
-0.134907844032
-0.729193902949
-0.0740608286412
-0.29746101213
-0.368036702747
0.239151161759
0.0420429758996
0.448370658361
-0.20168188435
0.486808666854
-0.0574208740559
-0.337841608038
0.486127015495
-0.326056119338
0.290018664926
-0.894726415488
0.106108166147
-0.744281741539
0.0629153062048
0.732120010114
-0.0608144569517
0.30254499311
-0.364937828709
-0.39949667538
-0.545219159273
0.317743734625
0.0835453161822
-0.298774251167
-0.0747142243985
0.382431290072
0.331806689002
-0.205247046152
-0.00723650870291
0.364004430273
0.129518485347
-0.0786285559495
-0.226315846738
0.218706634702
0.329505162509
-0.0585158660356
0.553764180228
0.0732440372763
0.0883652844895
-0.605010656957
0.0550975866217
0.683300046491
-0.538522228008
-0.435672600442
0.163517787167
0.652574695107
0.242284662902
0.090557869256
0.430310304152
0.675518749565
0.794320765547
-0.0777627887835
0.124540515728
-0.135403766542
0.657353647624
-0.319225303794
-0.0387491588556
-0.619463393008
0.138384315919
-0.306402689143
-0.471947279693
-0.0536648249275
-0.172416009154
-0.653260830529
0.0963965169172
0.191786069982
0.134591923031
-0.170396957823
-0.222302524867
0.172777057647
-0.210691334728
0.418866177734
-0.207681419135
0.237516434407
0.262092953464
0.369426029549
0.228182131359
0.107524369206
-0.0650151925213
-0.163982861755
-0.0149420822987
0.394203250109
-0.24300526623
0.00125567705678
0.0338630922793
0.662920986748
-0.0421891433587
0.0964688974432
0.321223284237
-0.0522810455183
-0.437653516776
0.397955421365
0.562998026726
0.00396337767567
0.115382559083
-0.437027638329
-0.231608223785
-0.0530612088458
-0.211494452063
0.4094465032
0.0338455988948
-0.539086283691
0.0693048186795
-0.219072871337
-0.0995907107737
0.0200121080735
-0.119680239417
0.536483350051
-0.35633680608
-0.494382550292
0.313412039996
0.252862127459
-0.00206020184867
-0.242119960341
-0.501455176918
0.124468060916
0.386579220967
-0.252590722158
0.143903515502
0.145413374254
-0.164372098491
-0.172989960342
-0.28246944092
0.0181801567046
-0.100580095011
0.59022714651
0.00182026054438
0.174306635462
-0.289730410647
-0.475922188584
0.296327293491
0.0324857819847
0.744631053171
-0.313538296873
0.491518419721
-0.438710316733
0.0696292425724
-0.498243263546
-0.350326209276
-0.643179217455
-0.133466576965
0.56547428993
-0.779164802511
-0.315763435612
-0.0306680814387
0.288107522298
-0.280105752297
-0.191810277989
-0.278846015366
-0.0283828277068
0.151520123097
0.0557643097993
0.113235284927
-0.0801941043891
0.398449440064
0.486973753294
0.572856948578
0.500685997535
-0.209341713935
-0.466356125293
0.422644221112
-0.102212510445
-0.213870576812
-0.276329877933
0.508355700649
-0.101454572282
0.153477416042
0.594996526073
-0.102705701929
0.0361428460378
-0.404290150301
0.0984483113005
0.494227752894
0.136208830277
-0.376213982807
0.0045379306908
0.155285874482
0.214507126398
-0.0280673366449
0.0627531768675
0.3233023785
0.59021110313
-0.468834048144
0.234767018792
0.309774525357
-0.0880866334376
-0.0888733954181
0.233627208587
-0.218187673562
-0.360191849441
0.37730583264
0.234761856858
-0.117643056623
-0.32523492586
0.328330498589
-0.13274519108
-0.047999660539
-0.300658300644
-0.139802933367
-0.0883358969267
0.0416395085818
-0.46532612086
-0.0583705024196
0.395135034959
0.0931251851134
0.50135183691
0.518767000356
0.120911683423
-0.557607353924
0.13297077774
0.465383330587
0.0657202898991
0.579680486134
-0.397724719942
0.0810531131165
0.21350211365
-0.323193662756
0.0576840767243
-0.0491417295884
-0.834411398097
0.336569069327
-0.455121989816
0.0691983787328
0.407643574951
-0.26013297457
0.00604087210487
-0.116698321992
0.417628793929
-0.267254107306
0.214285775552
-0.453775856252
-0.0883639901584
0.0472987230112
0.614008189268
0.241045486898
0.595714882783
0.319271758894
0.28537149846
0.352729042341
-0.310933033659
-0.521356907103
-0.280152294483
0.0403648244909
-0.222316880516
0.203657131007
-0.317012988278
0.482648591526
-0.541186857483
0.261824458602
0.438398505306
-0.234064685353
-0.332785947034
-0.225905949159
-0.346945602381
0.221670677259
0.151372401589
0.0127009157495
-0.100771428005
-0.132138415794
0.573252421746
-0.176357870399
0.442688420362
-0.478262368945
-0.166956130675
-0.344170615566
0.0978929470619
0.174661713084
0.147283733238
0.045256239866
-0.495276806082
-0.225871488005
-0.70908906831
-0.170305919065
0.0352100831909
0.429155839823
-0.438681890779
-0.0640737925026
0.144215844277
0.106014054621
0.152435430607
-0.378870544425
0.181943779461
0.335743785423
-0.208565211593
-0.540151399053
-0.11760642878
-0.166118838427
-0.354147146622
-0.526238552489
-0.613713649883
-0.239385766033
0.315335431974
0.26259440476
0.332507887259
-0.0898043487648
-0.133934977957
-0.04804789396
-0.15403010529
-0.118670051555
0.444519252206
-0.0949111484461
-0.00553201766175
-0.505312630652
-0.22730465638
-0.186724638919
0.441311582765
0.32118910884
-0.260960602499
0.232599471213
-0.0816209889094
0.53897477025
-0.613730389304
-0.214120243072
-0.0921310533416
-0.238634506823
-0.221146601926
0.351769739983
-0.867254646732
-0.067819437569
-0.160810471551
-0.0905031955045
0.234448557881
-0.285462754181
-0.474311496487
-0.0240752024118
0.196112331653
0.312507703712
0.135210202561
-0.10790963773
-0.298685956141
0.780953386894
-0.370797572236
0.051819874011
0.452339187407
0.15962394614
-0.538028352426
0.344523488041
-0.623048727264
-0.312119768626
-0.474110644049
-0.24932495578
0.212482410037
-0.565728544249
-0.347716402555
-0.0682730680547
-0.474872886649
-0.393693251851
0.0744140057918
-0.462507774123
-0.16532786135
-0.0911314145581
0.227981742427
0.157670717635
-0.40648676075
-0.0956827663451
0.35900776504
0.169410389441
-0.331486449638
-0.167779820832
-0.0812891992688
-0.369906335244
0.729636410394
0.561183948727
0.0509601651011
-0.524222715977
0.0355389928397
-0.308625954167
0.389889217762
0.205076165245
0.376164381938
-0.0425826685551
0.549364873832
0.175411083674
-0.41074007063
-0.748134042119
0.345275041653
-0.00978230263568
-0.244637108977
0.518043829566
0.275487006212
-0.307028468698
-0.215338055524
0.0380854308579
0.381341815991
0.298120604353
-0.0665524371213
0.728692446065
0.185851435711
-0.105676677468
0.0403063911944
-0.323433266256
0.339631045033
-0.0244603585481
-0.295564800431
-0.469418549547
0.509630472484
0.368518825908
0.459320661866
-0.375238630949
0.378211734133
-0.0977113799365
-0.0297336109305
0.118356896998
-0.633530524748
0.0638585092795
0.0409467451439
-0.270342345793
-0.0156858743939
0.0264370233378
-0.0870392969212
-0.262727875187
0.47270836831
0.0270280814671
-0.0662478431375
0.111124645563
-0.142718952753
-0.352713563629
-0.15317838784
0.267143535213
0.135258880157
0.135057705229
-0.315899182757
0.0637870048543
-0.0286969165271