<VTKFile type="UnstructuredGrid" version="1.0" byte_order="LittleEndian" header_type="UInt64">
<UnstructuredGrid>
<Piece NumberOfPoints="920" NumberOfCells="1708">
<Points>
<DataArray NumberOfComponents="3" type="Float64">
2.0 1.0 0.0 
1.0 1.8 0.0 
0.0 1.0 0.0 
1.0 0.2 0.0 
0.7 1.1 0.0 
1.1 1.1 0.0 
1.2 1.1 0.0 
1.4 1.1 0.0 
0.7 0.9 0.0 
1.4 0.9 0.0 
1.5 1.0 0.0 
0.5 1.0 0.0 
0.65 1.2 0.0 
0.6 1.15 0.0 
0.6 1.1 0.0 
0.65 0.8 0.0 
0.6 0.85 0.0 
0.6 0.9 0.0 
1.05 1.2 0.0 
1.15 1.17 0.0 
1.1 1.185 0.0 
1.99644434689 1.06740285364 0.0 
1.98585830046 1.1340648474 0.0 
1.96847556596 1.19928685358 0.0 
1.94465790053 1.26244566793 0.0 
1.91486069639 1.32301569617 0.0 
1.8795960811 1.38057702221 0.0 
1.83939948941 1.43481195728 0.0 
1.79480325651 1.48549375012 0.0 
1.7463187267 1.53247098441 0.0 
1.69442218986 1.57565424191 0.0 
1.63955547262 1.61499595963 0.0 
1.58211886173 1.6504829619 0.0 
1.52247565055 1.6821233646 0.0 
1.4609546331 1.70993896131 0.0 
1.397854096 1.73395896051 0.0 
1.33344606419 1.7542153421 0.0 
1.26798057292 1.77073945275 0.0 
1.20168978881 1.78355956163 0.0 
1.13479191494 1.79269914178 0.0 
1.06749490804 1.7981756949 0.0 
0.932505091962 1.7981756949 0.0 
0.865208085059 1.79269914178 0.0 
0.798310211195 1.78355956163 0.0 
0.73201942708 1.77073945275 0.0 
0.666553935813 1.7542153421 0.0 
0.602145904005 1.73395896051 0.0 
0.539045366901 1.70993896131 0.0 
0.477524349453 1.6821233646 0.0 
0.417881138275 1.6504829619 0.0 
0.360444527379 1.61499595963 0.0 
0.305577810146 1.57565424191 0.0 
0.253681273305 1.53247098441 0.0 
0.205196743491 1.48549375012 0.0 
0.160600510589 1.43481195728 0.0 
0.120403918905 1.38057702222 0.0 
0.0851393036143 1.32301569617 0.0 
0.0553420994674 1.26244566793 0.0 
0.0315244340402 1.19928685358 0.0 
0.0141416995427 1.1340648474 0.0 
0.00355565311446 1.06740285364 0.0 
0.00355565311442 0.932597146364 0.0 
0.0141416995426 0.8659351526 0.0 
0.0315244340399 0.800713146423 0.0 
0.0553420994668 0.737554332071 0.0 
0.0851393036135 0.676984303829 0.0 
0.120403918904 0.619422977787 0.0 
0.160600510587 0.565188042723 0.0 
0.205196743489 0.514506249885 0.0 
0.253681273303 0.467529015592 0.0 
0.305577810144 0.424345758089 0.0 
0.360444527376 0.385004040371 0.0 
0.417881138273 0.349517038097 0.0 
0.477524349451 0.3178766354 0.0 
0.539045366899 0.290061038692 0.0 
0.602145904003 0.266041039491 0.0 
0.666553935812 0.245784657901 0.0 
0.732019427079 0.229260547251 0.0 
0.798310211195 0.216440438372 0.0 
0.865208085059 0.207300858215 0.0 
0.932505091962 0.2018243051 0.0 
1.06749490804 0.2018243051 0.0 
1.13479191494 0.207300858215 0.0 
1.2016897888 0.216440438372 0.0 
1.26798057292 0.229260547251 0.0 
1.33344606419 0.245784657901 0.0 
1.397854096 0.266041039491 0.0 
1.4609546331 0.290061038692 0.0 
1.52247565055 0.317876635399 0.0 
1.58211886172 0.349517038096 0.0 
1.63955547262 0.385004040369 0.0 
1.69442218985 0.424345758087 0.0 
1.74631872669 0.46752901559 0.0 
1.79480325651 0.514506249882 0.0 
1.83939948941 0.565188042721 0.0 
1.8795960811 0.619422977785 0.0 
1.91486069639 0.676984303828 0.0 
1.94465790053 0.73755433207 0.0 
1.96847556596 0.800713146422 0.0 
1.98585830046 0.8659351526 0.0 
1.99644434689 0.932597146364 0.0 
1.03333333333 1.1 0.0 
0.966666666667 1.1 0.0 
0.900000000001 1.1 0.0 
0.833333333334 1.1 0.0 
0.766666666667 1.1 0.0 
1.33333333333 1.1 0.0 
1.26666666667 1.1 0.0 
0.763636363636 0.9 0.0 
0.827272727272 0.9 0.0 
0.890909090909 0.9 0.0 
0.954545454545 0.9 0.0 
1.01818181818 0.9 0.0 
1.08181818182 0.9 0.0 
1.14545454545 0.9 0.0 
1.20909090909 0.9 0.0 
1.27272727273 0.9 0.0 
1.33636363636 0.9 0.0 
1.48660254038 1.05 0.0 
1.45 1.08660254038 0.0 
1.45 0.913397459622 0.0 
1.48660254038 0.95 0.0 
0.675 1.15 0.0 
0.625 1.175 0.0 
0.675 0.85 0.0 
0.625 0.825 0.0 
0.55 1.08660254038 0.0 
0.513397459622 1.05 0.0 
0.513397459622 0.95 0.0 
0.55 0.913397459622 0.0 
1.075 1.15 0.0 
1.175 1.135 0.0 
0.85 1.4597966139 0.0 
0.893708602623 0.553069771368 0.0 
1.21264555782 1.46965185941 0.0 
0.430474304597 0.655474304598 0.0 
0.430474304598 1.3445256954 0.0 
1.24149891273 0.570219998248 0.0 
1.49249519048 1.35971368812 0.0 
0.648922656714 0.556371955875 0.0 
1.49621605424 0.66100759764 0.0 
0.632305989286 1.41813806765 0.0 
0.27969003365 0.859912899584 0.0 
0.279790058876 1.14019200702 0.0 
1.73162088186 1.09613088728 0.0 
1.71480132721 0.837148256943 0.0 
1.02251832176 1.58848318354 0.0 
1.29479890872 1.29248880148 0.0 
0.815060283372 1.27788921118 0.0 
1.03048683406 1.38894109403 0.0 
1.06194140505 0.416056837223 0.0 
0.809430898007 0.72398858261 0.0 
1.69057939821 1.29156079048 0.0 
1.06220637541 0.686171039914 0.0 
0.542817659948 0.721517432608 0.0 
0.54519955936 1.27980044064 0.0 
1.39351717996 1.52907111856 0.0 
0.726679627545 1.57812022782 0.0 
1.41115271042 0.476419572238 0.0 
0.426870261687 1.18125006743 0.0 
0.426870261687 0.818749932568 0.0 
1.66971307861 0.66155943927 0.0 
0.763086899447 0.415571029868 0.0 
0.490810350077 1.50024692008 0.0 
1.5789344647 1.1789344647 0.0 
0.496346916765 0.496991312606 0.0 
0.173127172693 1.00001295792 0.0 
1.33115172294 0.723388391896 0.0 
1.56075071357 0.79767776095 0.0 
0.266984693744 0.69460130555 0.0 
0.26694544563 1.3054097024 0.0 
0.343172373221 1.0 0.0 
0.871110041344 1.61916102346 0.0 
1.16386828058 1.31767943652 0.0 
1.83100956587 0.9472597233 0.0 
1.19337445265 1.6216683402 0.0 
1.63840643905 0.96125017596 0.0 
0.656059492261 0.679559945327 0.0 
1.25742558553 0.401426820107 0.0 
1.4415089699 1.23268138206 0.0 
0.695973284419 1.31225433432 0.0 
0.943967078188 1.28735249391 0.0 
0.929072199923 0.359728672909 0.0 
1.64223760345 1.42814074034 0.0 
1.59281811098 0.522100000812 0.0 
0.61485397253 0.415939825605 0.0 
1.80788499791 1.21647909383 0.0 
1.19352710759 0.755808085032 0.0 
0.951846188176 0.760331349194 0.0 
0.366066252608 1.45903093572 0.0 
0.528888456741 1.38759902292 0.0 
0.373672878875 0.538159339203 0.0 
0.533048243391 0.606206740258 0.0 
1.33429481789 1.42343148886 0.0 
0.740205370664 0.62095757591 0.0 
1.53081060693 1.52930948298 0.0 
1.43684505007 0.782581064145 0.0 
0.748285039026 1.41181270485 0.0 
1.79504809614 0.728190636487 0.0 
0.147562517687 0.86048678248 0.0 
0.147634223596 1.13952240268 0.0 
1.24918287604 1.20640533976 0.0 
0.518509494071 1.19206384572 0.0 
1.02547824118 0.548271833632 0.0 
0.526456302275 0.812467441631 0.0 
0.591690302356 1.58667474511 0.0 
1.09382957449 1.48799046854 0.0 
1.85344678206 1.06876843158 0.0 
0.958730906492 1.4881360211 0.0 
1.37098211793 0.598726837919 0.0 
1.31081076609 1.62711607546 0.0 
1.5858158021 1.07088676643 0.0 
0.724706319398 0.744931138189 0.0 
0.724196472243 1.23630967532 0.0 
0.41295456769 1.07719219875 0.0 
0.41295456769 0.922807801255 0.0 
0.373363887322 1.26274479175 0.0 
0.373363887322 0.737255208251 0.0 
0.930305136366 1.39379218582 0.0 
1.85555531968 0.829143783296 0.0 
1.58227170388 1.28454700447 0.0 
0.959398278489 1.69539287416 0.0 
0.632703341253 1.26679577366 0.0 
1.16207500171 0.321517360864 0.0 
1.57498491925 0.897940110651 0.0 
0.171505946293 0.744511755992 0.0 
0.171505946294 1.25548824401 0.0 
1.08602606152 1.6866304689 0.0 
1.05664670649 1.29876203551 0.0 
0.46341594006 1.25742360651 0.0 
0.468367189368 0.742592041589 0.0 
1.68517042776 1.18523164453 0.0 
1.40154802773 1.32814655619 0.0 
0.943838094912 0.655489423766 0.0 
1.02996714312 0.313654841104 0.0 
0.881194140226 1.20096747586 0.0 
0.593205970863 0.77480419551 0.0 
1.24057470876 1.37332592944 0.0 
1.14022232582 0.518228222381 0.0 
1.52712155236 0.44444112837 0.0 
1.0490430816 0.802671772524 0.0 
0.778432003498 1.66601155299 0.0 
1.14075487863 1.39980978659 0.0 
1.73636984734 1.39083964491 0.0 
1.16730024471 0.657054417896 0.0 
1.34531513089 1.20242644757 0.0 
1.64840416231 0.76032715674 0.0 
0.792506077498 0.807378919577 0.0 
1.29465984305 1.52785393582 0.0 
0.962637221698 0.478107550318 0.0 
1.36887039032 0.373482768094 0.0 
0.27584779797 0.587778426195 0.0 
0.701723391917 1.48618518773 0.0 
0.745775685979 0.515112280564 0.0 
0.839374808294 1.36987613815 0.0 
0.268382347975 1.41032595255 0.0 
0.806396093754 1.5466529248 0.0 
1.48920045789 0.553206314279 0.0 
1.42731829435 1.43493322739 0.0 
1.74184843873 0.992483386964 0.0 
0.820987915142 0.310764952144 0.0 
0.577906438105 1.22192284042 0.0 
0.261762456133 0.949436364189 0.0 
0.262164665244 1.0507542735 0.0 
1.57419519025 0.7021938755 0.0 
0.583211207057 1.49049672775 0.0 
1.69135798448 0.555035359539 0.0 
1.49389272909 1.15843774797 0.0 
0.592478795702 1.33913228879 0.0 
0.47469710566 1.11808531913 0.0 
0.47469710566 0.881914680868 0.0 
0.690888579511 0.346110343368 0.0 
1.31206272387 0.4948165261 0.0 
1.46734166932 1.59869564364 0.0 
1.80181103103 1.3123146998 0.0 
0.861088063019 0.456983399903 0.0 
0.587417675965 0.658541394233 0.0 
0.344448907929 1.35621202063 0.0 
0.344621994568 0.643872405598 0.0 
0.453216297551 0.571664870427 0.0 
0.452280841234 1.4246914655 0.0 
1.2799244643 0.803557841649 0.0 
0.52100350027 0.409580318529 0.0 
0.891754762793 1.53513173216 0.0 
0.657496424706 1.65368328554 0.0 
0.847306485331 0.63224520722 0.0 
1.77254976227 0.636994602363 0.0 
0.967376310856 1.20493465913 0.0 
1.16489358342 1.54128626986 0.0 
0.6505035438 0.741502553952 0.0 
1.41565752328 0.695377658928 0.0 
0.354345021663 1.14845153817 0.0 
0.354299028486 0.851681642927 0.0 
0.494008134344 1.59190400767 0.0 
0.0945161378503 0.949205020712 0.0 
0.0959108983438 1.04980573846 0.0 
0.408937470248 1.53866004828 0.0 
0.583693870527 0.499979497647 0.0 
0.422250125745 1.0 0.0 
1.49598060181 0.845467268686 0.0 
0.404548105557 0.46078703962 0.0 
1.2594430564 0.659359732899 0.0 
0.288145100581 1.22547599767 0.0 
0.28814510058 0.774524002329 0.0 
1.16803482137 0.428693400077 0.0 
1.63247123258 0.839149990251 0.0 
0.81062105887 1.17021807565 0.0 
0.49930014752 0.667518428358 0.0 
1.17669232644 1.23712542102 0.0 
1.90963448202 1.00085057547 0.0 
1.75433331828 0.907969742357 0.0 
0.680647677834 1.25217680912 0.0 
1.62385013138 1.52037996142 0.0 
[...]
<PointData Scalars="solution">
<DataArray type="Float64" Name="Real part" format="ascii">
0.319601782096
0.22729027341
-0.41263233354
0.10303799963
0.0281964343431
0.194329906455
-0.80588395764
-0.330814877949
0.759687912859
0.984687855794
-0.330814877949
0.759687912859
0.911130261885
-0.104236026866
0.475536927996
0.714265652027
0.748646645597
0.748646645597
0.911130261885
-0.59492066331
-0.215463976099
-0.414293979468
0.259528602683
0.31504898933
0.226756721804
0.108432888029
-0.0120159305519
-0.115450174365
-0.198931308146
-0.259329491375
-0.294554053242
-0.307572329711
-0.30049871599
-0.268419464909
-0.220272686068
-0.159216626384
-0.0881950342363
-0.0120979944374
0.0634648891327
0.132091252204
0.188637030427
0.249982077657
0.252386593567
0.237541952185
0.203880507122
0.156116267678
0.0948596056678
0.0230604776514
-0.0549067457607
-0.135110641801
-0.213033994575
-0.284482478617
-0.344379210864
-0.389120585076
-0.425610643313
-0.445212287584
-0.455957485909
-0.459491700253
-0.456222481608
-0.447891390728
-0.431400538474
-0.399637366572
-0.386176926264
-0.368293962606
-0.350489460228
-0.333589417607
-0.319098761173
-0.306732612929
-0.289844974366
-0.278771824011
-0.26497599432
-0.246673376381
-0.230320496571
-0.206080088743
-0.178805439022
-0.148787048026
-0.111014669057
-0.0706877521566
-0.0267947825877
0.0179669710959
0.0608932518857
0.14174908629
0.173668672307
0.197369515172
0.215553372275
0.224865183471
0.224997391844
0.220492039334
0.205719706153
0.193550078838
0.177754205455
0.156241048815
0.148911124153
0.140881949055
0.147684692433
0.16626141126
0.200102013149
0.254337172233
0.315792479306
0.379117113745
0.422271728587
0.164428580228
-0.972832565697
-0.986192302279
-0.843853958734
-0.56828962977
-0.20300486382
0.446484891416
0.0627917229287
0.848823591348
0.590709546526
0.247519977101
-0.131318062922
-0.491243334125
-0.780418463227
-0.957195696342
-0.996115116775
-0.891571448413
-0.658621342164
0.883109116187
0.883109116188
0.0432043642711
0.46394942004
0.0455585127847
0.194329906454
0.962485467975
0.748646645597
0.923059167554
0.99901478358
0.79946442519
0.79946442519
-0.708356389162
-0.27363181655
-0.601676230484
0.65715649363
0.19016877033
0.206818481195
-0.675801113473
0.613822844757
-0.11341151149
0.192667705225
0.317822437841
0.228149533241
0.146781408313
0.758603731909
0.775123264717
0.516159873446
0.47235185006
0.0934188999874
0.474526729343
-0.584761268667
-0.0310306261732
0.574156077628
-0.806890652779
0.454100293492
0.408623694238
0.441150451705
0.263216205202
-0.0904829443521
0.447526464494
0.570629960044
0.524577877949
-0.382838790276
0.117802259347
0.63359500025
-0.122128043474
-0.0786266323896
-0.448132174395
0.554514239514
-0.018079209899
-0.109973079064
0.473993649464
0.353512823617
0.440863863816
0.738875083262
0.479746078328
0.65457906869
0.209897614943
-0.301936762622
0.524115516485
0.344941822084
0.20199570991
-0.424762025371
0.29554998877
0.26348825801
-0.245360943382
0.564017505178
-0.852212388732
-0.334787779655
-0.0747163316144
0.294976611853
-0.114402796221
0.106907627963
0.640366476621
-0.138431377121
0.195766183864
0.173614520356
0.213742731715
0.582739344728
-0.158417886722
-0.235672824543
0.108900811245
0.451928729235
-0.80671690482
0.695221052988
0.179976122965
0.609308277701
0.61249453148
0.373878178225
-0.293350836742
0.322639340747
0.440461298739
0.240949293428
0.278943481399
0.599234123716
0.673937607584
0.213331973358
0.291191589829
0.253803254111
0.642190787656
0.649274885693
0.395199194909
0.470144168792
-0.196426657638
0.556506062612
-0.169076484656
-0.281489348804
0.412643255348
0.426621780576
0.372959584624
0.463999859703
0.716710162087
0.617126085958
-0.592299402492
-0.274615210067
-0.217540627457
0.638024126378
0.599521912203
-0.764953199509
0.15494512703
-0.566314645321
0.298733632604
0.594698614652
0.237882010668
-0.864718388544
0.277944435803
0.657452400388
0.248012611164
0.56727376032
-0.67949965121
-0.0235256165634
-0.156116375164
0.256996687942
-0.339166545584
0.133589231029
-0.229558681375
0.222484444068
0.0916377037853
0.576744959489
0.802493829098
-0.264293173777
0.400984478779
0.213730889326
0.181257296597
0.460500637349
0.241656123195
0.336936684363
0.493844698868
0.385006691781
0.626661375735
0.762047936739
-0.262489039757
-0.380691235382
0.108053420416
0.354245086957
-0.539443452382
0.234473537723
0.00760778932637
0.0417016145278
0.00643166868272
0.139071293129
-0.703101240417
-0.211595493426
0.26650127318
0.209589194006
-0.382596390307
0.424170591273
0.082072076501
0.61678257774
0.433243140987
-0.0766078824298
0.349840488218
0.443951577576
0.0366499166903
-0.269681389578
-0.295069736518
-0.0696439341114
-0.147917281821
0.69249910443
0.498155737083
-0.192145169004
-0.696518374904
0.0553169183944
0.151964154545
-0.526989845452
0.696616952368
-0.292778762761
0.277823318063
0.0983138881328
0.494865687484
0.807992970656
0.447560098726
0.032624339298
0.422351347869
-0.112572995276
0.317129784418
0.390671074349
0.149195604704
0.218549307782
0.374223702439
0.354027765161
0.58597324173
0.263820781356
0.708234438522
0.468355537788
0.620999826669
0.437832672888
0.104977226806
0.278709057481
0.550969434922
0.000191045100586
0.106658684851
-0.2005496331
-0.314880975485
0.138918058416
-0.346953507318
0.332610686026
0.500219123378
-0.817343219178
-0.271178148627
0.108305925588
0.330430170354
-0.101444946472
0.342040830163
0.67994090942
-0.425732410349
0.737163758208
0.36932567412
0.406058941322
0.699263827606
0.685853680873
0.466964898656
0.775353400329
-0.872682039769
0.389353410554
0.305070569457
0.636589516745
0.24582683097
0.323918541861
0.756595845792
0.551836702283
0.42880385912
0.707246353396
0.532883641781
-0.226069776136
0.378480417205
0.38698661453
-0.564964278449
0.351115826642
-0.0336372061759
-0.0246373991868
-0.116084185528
0.502951563299
-0.520770869408
0.216820204435
0.7312036708
0.0598155660631
-0.207043530885
0.0437483722983
0.510237243075
0.639340290053
-0.267480892425
-0.3684365196
0.0118506427011
0.00163389987209
0.0575346070176
0.624522072121
-0.828408390009
0.404022340923
-0.144609205605
0.505986458207
-0.0397450928981
0.000136581315899
-0.100633062493
0.388411808007
0.36774589813
0.320751398705
0.422799080927
-0.222795532346
0.646107791904
0.288244472486
-0.871511396611
0.544290224575
0.350229873756
-0.754088412251
-0.229234946084
0.188658752835
0.356578352979
-0.215619635562
-0.625021709666
0.401144415715
0.598284600489
0.613440476272
0.021868921872
0.580331272004
-0.233812882719
0.262263351993
0.097312188927
0.584457729359
-0.467938623294
-0.716073644648
0.26317276082
-0.0490814231715
0.315669263564
0.239108540673
-0.801250962615
-0.0284775970282
0.420715298921
0.490459478621
0.476896541831
0.119095121482
0.234428007624
-0.431278166049
0.257371937118
0.150623890717
0.556004587148
-0.314638308659
-0.734451418846
0.646076851645
0.116297062227
0.301358101781
0.402035325519
-0.464188749478
0.286539656908
0.696603571354
0.128238799087
-0.0575560430633
0.454017942786
0.417690913485
-0.802813111171
0.21446062896
0.34994227304
0.454816145345
-0.361509044874
-0.207083110644
-0.179556411349
-0.219572158916
0.0727018352129
0.265407779502
-0.176387373794
0.709443758639
0.797892971628
-0.138572493799
0.0294248660401
-0.323234524212
-0.157373652343
0.230968660355
-0.295210400732
-0.355453901909
-0.172243621619
-0.111122187379
-0.00797318162392
-0.0716349436462
0.278628554333
-0.106143365026
0.113169472135
0.0781795304187
0.094355032538
0.440123292399
-0.200269659294
0.591620519939
-0.449307404933
-0.444219678596
0.632676463868
0.431822637608
0.763253303477
0.46772378243
0.343013999231
0.0729182905072
0.635828325348
0.273962144759
0.348713046235
-0.213766323632
0.276138128627
-0.167679273131
-0.176030106275
0.304726889993
0.51577385748
0.0494462686511
0.528744852863
0.306520316837
0.234369528793
0.310042938003
0.166156147032
0.797404121794
0.520226105752
0.556073894617
0.669919549228
0.127715710095
0.438755790309
0.58513502821
0.371685868849
0.402871298713
0.0542796188888
0.146007106229
-0.0872971423468
0.564093657689
0.509329601969
0.718661691041
0.556017685149
0.279817298888
0.178140367926
0.555681840458
-0.80884048115
0.0519298033318
-0.0584618471862
0.662597312724
0.306606888668
0.403753860697
0.0947797632118
-0.564646737961
0.0233760190205
0.0256946623362
0.264635426419
0.373320324064
0.164951189225
-0.170686245638
-0.578956568076
0.620385507908
0.622588518209
0.57233399996
0.260196785915
0.562035683259
0.592753207396
0.628200254959
0.234755269154
0.327780782959
0.0442066002691
0.115393964276
0.63728225121
0.0597873814773
0.398038696307
-0.313750006765
0.0343025327839
0.319207561891
0.320378251817
0.293554761792
0.688831955521
0.451632873329
0.748655782289
0.607127855322
0.474024576154
0.21488865783
0.309067089095
0.118663441315
-0.517891683333
0.357531433985
0.596738351865
-0.0842884849598
0.108363887098
0.413939357974
0.278375913121
-0.357500402955
-0.278076205614
-0.393814364213
0.147502515961
-0.611588517508
0.331593466024
-0.0531938373345
0.616656349606
0.322118987307
-0.0363603182711
0.308883256453
-0.627358862918
-0.113307678845
0.434394291114
0.433579218483
0.656622637529
0.432292664382
0.743700588846
-0.0389116073792
-0.0702866009583
-0.0627803967736
-0.0199989830548
-0.798736915636
0.110738735406
-0.672954717215
-0.204601320203
0.335438097176
-0.877606158783
0.39207278304
-0.216995144829
0.28759322324
-0.422091496986
-0.0798229257764
0.638865282067
0.269280164141
-0.271048467375
-0.501756284687
-0.791163782316
0.573534473972
-0.742877676316
0.660452567225
0.501976750601
0.544578574082
0.366986149292
-0.358232035446
0.382144065491
0.714079155825
-0.375650664978
0.416975528706
0.785545946315
0.138432630692
0.168370744624
-0.43564292768
0.14542242565
0.471908104785
0.281236091701
0.782035096754
0.33989515058
-0.540302781271
0.40159666889
0.462218744381
0.0231214739478
0.409264880442
-0.0242212417789
0.743102171781
0.527847152021
-0.229556356225
0.173391535813
-0.583506470715
0.771990961673
0.0305658017151
-0.348031734227
0.402648948047
0.60346843002
-0.700618072136
0.151046995536
-0.176360307056
0.505659008317
0.182606312164
0.398036239687
0.206952114521
-0.182943328793
0.269689955757
0.54369046284
0.207618001724
0.100586803141
0.201219527963
0.291260022716
0.26223060176
0.190294462936
0.461190226501
0.454542956841
0.418132850802
0.353657726195
0.516762720397
0.291480231209
-0.0750157495764
0.0417484001488
-0.17754790697
0.189608369842
0.226479408755
-0.135118384437
0.731017425681
0.840182070092
-0.237457106517
-0.290399232708
0.544003616345
0.00917105829209
0.10397937624
-0.461903352773
0.593566579331
0.272056259374
-0.258913320668
0.296882023213
-0.700067358814
0.256651596187
-0.864023447042
-0.182577229155
0.320862236938
-0.458584165272
0.450239330654
0.62769349092
0.549512070549
-0.333301169736
-0.400091459063
0.186856687855
0.468496956405
0.245856168408
0.362103586525
0.195373508255
0.503165810806
-0.305524485099
-0.259864170204
-0.221342251863
0.528874921236
0.128866379368
0.64721326987
0.0691456932147
0.145204674866
0.731758102856
0.359213486087
-0.20951155723
0.336622872375
-0.123305498373
-0.167857402889
0.576802676733
-0.328152719627
0.796122785484
-0.226407259297
-0.146549867417
-0.244663882134
0.364131761332
0.77255672013
-0.485422544405
-0.546152294033
-0.0319199353486
0.45930373358
0.371536977199
0.319794555495
0.50147445622
0.515304874223
0.222849390838
0.162898825161
0.255908551522
-0.296892104698
0.448023502599
0.660462013509
0.360593496401
0.061719002913
0.810629249737
-0.241118636197
-0.643480861079
0.199823664965
0.650309140013
-0.225088854078
0.68170253023
0.781720197617
-0.446657141171
0.31043391614
0.0481098713179
0.410488593478
-0.84270942972
0.562213441484
0.738004792282
0.646655661848
0.168177559163
0.632044290523
0.109705417619
0.413070481806
-0.461467613438
0.652018380646
0.656092578431
0.129949556838
0.560861212157
-0.0838166470713
0.0499213751867
0.291856673465
0.475440765292
0.592817100353
0.00390399633251
0.313999006906
-0.843270335329
0.0865243933051
0.271640456297
-0.273785966217
-0.395187533859
0.587430914963
0.497265263347
0.361432807349
0.374040387668
-0.871430147719
0.733545680963
0.0830822469098
0.221289247855
0.421783915408
-0.319528095122
0.116330941402
0.429383333239
-0.219541063651
-0.0444294308208
0.353279154766
-0.320273144302
-0.401908071636
0.425522638651
0.629257377616
-0.678466806572
-0.813426691138
-0.17055343621
-0.181277183222
0.368608372404
0.17333751268
-0.435014817689
0.188466643795
0.626077884452
-0.12843747915
0.289997065279
0.260287030127
0.438536066495
-0.227215899157
0.545045809711
0.180733560879
0.758350388729
0.522107623993
0.682124051517
0.633323003906
0.311107537103
0.752534221412
0.591195012448
0.584584463613
0.807314222225
0.0690848727926
0.607374462621
-0.341791533615
-0.380545369376
-0.15675742239
0.113689085976
0.204695336598
0.466126055801
0.0811278773729
-0.0774482012101
-0.0283464636557
0.487058557153
0.130677768052
-0.152353902772
-0.210603610066
-0.103485011112
0.540318134976
0.316585266006
-0.61483355809
0.28336804711
-0.263404852851
0.107556120807
0.592944370039
0.473420869487
0.349537302427
0.000331052221389
0.0922200580125
0.760484828465
0.140715488439
0.371305066987
-0.0749104377095
-0.642754245973
-0.244800594262
-0.056376143748
0.145677906348
-0.15782194163
-0.0414689558145
0.666429249002
0.295501256429
-0.381600954611
-0.753762484621
-0.437778512964
0.535785784342
0.394795471126
0.241381328006
0.582445404361
0.253438850988
0.729912138904
-0.146798320425
-0.0254836131585
0.0313061889876
-0.325979511511
0.36869424721
-0.257816155114
0.181952308571
-0.263937250803
0.391934282135
-0.071831710007
0.530192314347
0.508781987166
0.214533415518
0.0279803634102
0.171138955508
-0.0549290010892
-0.310027256082
0.728540413286
-0.269975712882
-0.135617645318
0.258336520678
-0.263307376592
0.36038572937
0.496621196532
0.484064498865
-0.0900888175685
-0.6132247171
0.149726260147
-0.684954091722
-0.199681941782
0.302344292547
0.617364795243
0.142924191273
-0.844950481949
0.284689931365
-0.35718986108
0.0626807602516
0.193698175261
0.164884783021
0.499437162716
0.642498778817
-0.231917684
0.751454595392
-0.153145718219
-0.0511640757538
0.176839145093
-0.209623283524
-0.869279060974
-0.847852167555
0.244315352835
</DataArray>
<DataArray type="Float64" Name="Imag part" format="ascii">
0.135028886015
-0.322591393074
-0.118517551858
0.553448557635
0.149765370199
-0.980936230066
0.592073514707
0.943695669444
0.650287840157
-0.174326781223
0.943695669444
0.650287840157
0.412118485242
-0.994552588204
-0.879695759972
-0.699874687594
0.662969230082
0.662969230082
0.412118485242
0.803784426552
0.976511789485
0.910143119831
0.177709487153
-0.210031145451
-0.414066575951
-0.52859993959
-0.581944092753
-0.609185820831
-0.615628830031
-0.614922253898
-0.604271173856
-0.597592970681
-0.595200616988
-0.58219880523
-0.5719030786
-0.56279815513
-0.543165768625
-0.518207795666
-0.479910230359
-0.435705271016
-0.384114395742
-0.265067386893
-0.216320620604
-0.183948830703
-0.165304229589
-0.166463769532
-0.175777759375
-0.193146956471
-0.207835799721
-0.217105841893
-0.222923823355
-0.220255499387
-0.210483096332
-0.197027050276
-0.180921297708
-0.162911180213
-0.147356663578
-0.134246011485
-0.124787293278
-0.119470338161
-0.117229725998
-0.124169539665
-0.132347307249
-0.139955530841
-0.145344495032
-0.149440972482
-0.149153035511
-0.144348076754
-0.131494549373
-0.110983415082
-0.081237131449
-0.0422367949419
0.0073937353156
0.0647403309211
0.13071839114
0.203367559039
0.276370967519
0.352298626092
0.415927555986
0.478520034232
0.522414572045
0.569956035201
0.562696081168
0.532548288772
0.484332808346
0.417511352814
0.327515656839
0.225961097714
0.115728144035
-0.00220747680829
-0.121887883504
-0.234921017212
-0.344245518034
-0.438531135359
-0.518237636976
-0.58038800757
-0.606631242356
-0.612679569256
-0.564181714106
-0.454160391645
-0.247655760697
0.264573278013
0.231509825102
-0.165604175446
-0.536572917998
-0.822828594967
-0.979177729151
0.894791172139
0.998026652716
-0.528676187066
-0.806884274009
-0.968882790092
-0.991340287868
-0.871022380124
-0.625257564732
-0.289441529336
0.0880606275965
0.452880064006
0.752474536211
0.469167655435
0.469167655435
0.999066255515
0.885861691036
-0.998961671894
-0.980936230067
0.271333234117
0.662969230082
-0.384657995101
0.0443786231111
0.600713436553
0.600713436553
0.705854960975
0.961834512258
-0.190330596781
0.076557509252
-0.380365454465
-0.477358896887
0.231372372901
-0.287733332545
-0.321407689176
0.204962972371
0.0309978649862
-0.442226387413
-0.554988610536
0.0790975381519
0.0321482266443
0.157374346653
0.2886605819
0.371253638819
0.599059198255
0.403085689793
-0.539585274304
-0.380778155001
-0.389939873967
-0.299731320367
-0.331441457175
-0.478527854957
0.16317808179
0.324970315578
-0.4852629058
-0.238670114439
-0.113100550621
0.0671806556661
-0.279544885702
0.130630523006
-0.242528422851
-0.464751015674
0.145574083035
0.288182801392
-0.388315440836
-0.508572712347
-0.394389217938
0.208896391477
0.53977456726
-0.0279654090955
-0.26192076238
0.390642154831
-0.44653143193
0.497636811022
0.150733112104
0.207468075497
0.549433111733
0.383993615273
-0.624778688858
-0.0118695298204
-0.0516290528655
-0.265420842325
-0.226156570805
-0.693629259456
-0.402514298236
-0.275151171015
-0.286425802692
-0.366544808437
-0.11162820214
-0.422489149874
-0.652977866907
0.263966076539
0.416617563881
-0.343588426581
-0.388521691869
-0.432404932475
0.506182248655
-0.441835439288
-0.0169212026599
0.00682207985108
-0.111311836251
0.30257519515
0.0658000537694
0.550190230903
0.274656733495
-0.482718654491
0.438082977864
-0.509345620111
0.249381177142
-0.335399875302
-0.174444473163
-0.557168155429
-0.387131275409
0.680888520594
-0.310030953292
-0.216593189049
-0.0700084510414
-0.0135307216278
0.58417508834
0.482761171346
-0.345457143907
-0.411971340246
-0.215620334147
0.635713235667
-0.482214218122
-0.290336924874
-0.0695691380517
-0.0263096839767
-0.447951207573
0.546343500992
0.201558162026
-0.178124171417
0.253935815373
0.231856251759
0.126393243189
-0.724478156391
0.0392313991332
0.417618694028
-0.611811588815
-0.0881573896502
0.242707561854
0.0670060540392
-0.386103250508
-0.272453690748
0.119010308445
0.413641259276
-0.297170806603
0.229548654347
-0.200853412515
0.611641517824
-0.399254749902
0.405056221059
0.197431297255
-0.352816615022
0.14543501948
0.351723613854
-0.389780115288
-0.478759997679
-0.522426830252
0.134114744873
-0.104636676332
-0.232843441209
0.330920744903
-0.129894511296
-0.291617798922
0.00882047856429
0.151552369844
0.381562582389
-0.635184752407
-0.499298451473
0.0605972396843
-0.394188929275
-0.506915591864
-0.379479391226
-0.339344158173
-0.384376005176
0.011106473738
-0.0819871287698
0.498975352663
-0.0685992689672
-0.431089700201
-0.379636867293
0.393437120481
-0.000946500382367
-0.450092490988
0.237544861527
-0.526622661054
-0.356239098168
-0.234279156488
-0.329343648166
-0.340788553618
-0.314524936636
-0.235131750939
-0.132976252244
0.397233799014
-0.1790615684
0.0934184572235
-0.563512276559
-0.425164197249
0.455193022869
0.237885676602
-0.058035745981
-0.363990503609
0.658766712808
0.0783058710532
0.0460692806155
0.196692312864
-0.680545763775
-0.554138306417
0.185535691924
-0.393010484887
0.00347897516785
-0.669736450889
0.39840611268
0.603414705489
-0.0322660581326
-0.215651907654
-0.457390179498
0.268571950738
-0.122887744625
0.0515031284884
0.256905867941
0.26207888073
0.259186576519
-0.0257819829518
-0.484960518184
-0.591948911986
-0.299780099375
-0.370120786279
0.540601861948
-0.56420800525
0.346439496431
-0.488037992569
-0.496099761348
-0.132325197989
0.561588891465
-0.348709066146
0.559083109326
0.463048507329
-0.0555556166147
-0.236939200425
0.275911001031
0.452192333209
-0.369661314449
0.151236333704
-0.116307818494
-0.372808042519
0.27976674711
-0.149276516509
-0.538867205762
0.222048856355
-0.116795416877
0.0207985265843
0.67358093595
0.0761713806913
-0.219708329246
-0.39657187509
0.0427666844591
0.476992167398