<VTKFile type="UnstructuredGrid" version="1.0" byte_order="LittleEndian" header_type="UInt64">
<UnstructuredGrid>
<Piece NumberOfPoints="958" NumberOfCells="1780">
<Points>
<DataArray NumberOfComponents="3" type="Float64">
2.0 1.0 0.0 
1.0 1.8 0.0 
0.0 1.0 0.0 
1.0 0.2 0.0 
0.7 1.1 0.0 
1.1 1.1 0.0 
1.2 1.1 0.0 
1.4 1.1 0.0 
0.7 0.9 0.0 
1.4 0.9 0.0 
1.5 1.0 0.0 
0.5 1.0 0.0 
0.65 1.2 0.0 
0.6 1.15 0.0 
0.6 1.1 0.0 
0.65 0.8 0.0 
0.6 0.85 0.0 
0.6 0.9 0.0 
1.05 1.2 0.0 
1.15 1.17 0.0 
1.1 1.185 0.0 
1.99675968933 1.06434965354 0.0 
1.98710604629 1.128054122 0.0 
1.97123406146 1.19050148196 0.0 
1.94944745438 1.25114079731 0.0 
1.92213186649 1.30950057401 0.0 
1.8897254802 1.36519677535 0.0 
1.85269162732 1.4179316604 0.0 
1.81149626591 1.46748608392 0.0 
1.7665915679 1.5137080061 0.0 
1.71840510877 1.55649997646 0.0 
1.66733421564 1.59580670403 0.0 
1.61374382978 1.63160418563 0.0 
1.55796667225 1.66389068626 0.0 
1.50030533245 1.69267923858 0.0 
1.44103507004 1.71799189611 0.0 
1.38040705039 1.73985532684 0.0 
1.3186517997 1.75829747431 0.0 
1.25598252981 1.77334512634 0.0 
1.19259837055 1.78502213682 0.0 
1.12868743671 1.79334816312 0.0 
1.06442974759 1.79833779622 0.0 
0.935570252407 1.79833779622 0.0 
0.871312563294 1.79334816312 0.0 
0.807401629457 1.78502213682 0.0 
0.744017470193 1.77334512634 0.0 
0.681348200302 1.75829747431 0.0 
0.6195929496 1.73985532683 0.0 
0.558964929955 1.71799189611 0.0 
0.49969466754 1.69267923858 0.0 
0.442033327743 1.66389068626 0.0 
0.386256170218 1.63160418562 0.0 
0.332665784354 1.59580670403 0.0 
0.281594891222 1.55649997646 0.0 
0.233408432094 1.5137080061 0.0 
0.188503734085 1.46748608392 0.0 
0.147308372675 1.4179316604 0.0 
0.110274519798 1.36519677535 0.0 
0.0778681335091 1.30950057401 0.0 
0.0505525456175 1.25114079731 0.0 
0.0287659385388 1.19050148196 0.0 
0.012893953709 1.128054122 0.0 
0.003240310674 1.06434965354 0.0 
0.00324031067404 0.935650346463 0.0 
0.0128939537092 0.871945878002 0.0 
0.0287659385392 0.809498518039 0.0 
0.0505525456181 0.748859202686 0.0 
0.07786813351 0.690499425987 0.0 
0.1102745198 0.634803224652 0.0 
0.147308372677 0.582068339602 0.0 
0.188503734087 0.532513916077 0.0 
0.233408432097 0.486291993899 0.0 
0.281594891225 0.443500023541 0.0 
0.332665784358 0.404193295971 0.0 
0.386256170223 0.368395814372 0.0 
0.442033327749 0.336109313741 0.0 
0.499694667547 0.307320761417 0.0 
0.558964929964 0.28200810389 0.0 
0.61959294961 0.260144673163 0.0 
0.681348200297 0.241702525687 0.0 
0.744017470189 0.226654873658 0.0 
0.807401629454 0.214977863176 0.0 
0.871312563292 0.20665183688 0.0 
0.935570252406 0.201662203776 0.0 
1.06442974759 0.201662203776 0.0 
1.12868743671 0.20665183688 0.0 
1.19259837054 0.214977863175 0.0 
1.25598252981 0.226654873658 0.0 
1.3186517997 0.241702525687 0.0 
1.38040705039 0.260144673163 0.0 
1.44103507003 0.28200810389 0.0 
1.50030533245 0.307320761416 0.0 
1.55796667225 0.33610931374 0.0 
1.61374382977 0.36839581437 0.0 
1.66733421564 0.404193295969 0.0 
1.71840510877 0.443500023538 0.0 
1.7665915679 0.486291993897 0.0 
1.81149626591 0.532513916074 0.0 
1.85269162732 0.5820683396 0.0 
1.8897254802 0.63480322465 0.0 
1.92213186649 0.690499425985 0.0 
1.94944745438 0.748859202685 0.0 
1.97123406146 0.809498518038 0.0 
1.98710604629 0.871945878001 0.0 
1.99675968933 0.935650346463 0.0 
1.03333333333 1.1 0.0 
0.966666666667 1.1 0.0 
0.900000000001 1.1 0.0 
0.833333333334 1.1 0.0 
0.766666666667 1.1 0.0 
1.33333333333 1.1 0.0 
1.26666666667 1.1 0.0 
0.763636363636 0.9 0.0 
0.827272727272 0.9 0.0 
0.890909090909 0.9 0.0 
0.954545454545 0.9 0.0 
1.01818181818 0.9 0.0 
1.08181818182 0.9 0.0 
1.14545454545 0.9 0.0 
1.20909090909 0.9 0.0 
1.27272727273 0.9 0.0 
1.33636363636 0.9 0.0 
1.48660254038 1.05 0.0 
1.45 1.08660254038 0.0 
1.45 0.913397459622 0.0 
1.48660254038 0.95 0.0 
0.675 1.15 0.0 
0.625 1.175 0.0 
0.675 0.85 0.0 
0.625 0.825 0.0 
0.55 1.08660254038 0.0 
0.513397459622 1.05 0.0 
0.513397459622 0.95 0.0 
0.55 0.913397459622 0.0 
1.075 1.15 0.0 
1.175 1.135 0.0 
0.856654190803 1.46085887936 0.0 
0.908868306323 0.550180709946 0.0 
1.21273813367 1.46996044557 0.0 
0.430116348782 1.34488365122 0.0 
0.430116348782 0.655116348782 0.0 
1.22382203998 0.564691770018 0.0 
1.49246889226 1.35917654483 0.0 
1.49655910943 0.639636497688 0.0 
0.64886687676 0.556293501929 0.0 
0.638596140586 1.41751991771 0.0 
0.280864614173 1.13902010263 0.0 
0.280869912959 0.8609743343 0.0 
1.73666975204 1.09021038818 0.0 
1.69121308975 0.807538901795 0.0 
1.02250248409 1.58835606429 0.0 
1.29519808664 1.29293700591 0.0 
1.03046957739 1.3888514726 0.0 
0.815029813373 1.27796255107 0.0 
1.690086742 1.29110000892 0.0 
1.065888551 0.412958090784 0.0 
0.808738933503 0.724462410026 0.0 
1.06060811355 0.694087699937 0.0 
1.39373271353 1.52977537718 0.0 
0.545023108551 1.27997689145 0.0 
0.543439019099 0.721476629956 0.0 
0.727636910916 1.57766371085 0.0 
1.39157561257 0.469788417814 0.0 
0.427161013003 1.18126870315 0.0 
0.762249366457 0.415460312845 0.0 
0.427161013003 0.818731296851 0.0 
0.490615953542 1.50085334351 0.0 
1.81378156774 0.936203036118 0.0 
1.33076376899 0.714655109147 0.0 
0.493685826933 0.498677052194 0.0 
0.180896017439 0.99999534807 0.0 
1.58090237648 1.18032139312 0.0 
0.267130194943 1.30512264658 0.0 
0.265004460454 0.700254638264 0.0 
1.66904299388 0.630219753909 0.0 
0.87140022823 1.61912698253 0.0 
1.65237847991 0.956329793345 0.0 
0.343194309664 1.0 0.0 
1.54123377406 0.791004527643 0.0 
1.18168192693 1.62614977736 0.0 
1.16412477732 1.31773565832 0.0 
0.656013207263 0.679433207619 0.0 
1.24573514152 0.400120460568 0.0 
1.44154298652 1.23243486438 0.0 
0.695934673571 1.3123473463 0.0 
0.925648088664 0.358008854864 0.0 
1.64128972417 1.42739745158 0.0 
0.943907028071 1.28723216922 0.0 
0.615786505298 0.410914954202 0.0 
1.53505362686 0.500858300997 0.0 
1.81903782133 1.22072555655 0.0 
1.18843379897 0.748399020953 0.0 
0.367238171051 1.45634468909 0.0 
0.532728749488 0.605466578654 0.0 
0.327091014398 0.576147086551 0.0 
0.525001989753 1.39459908758 0.0 
1.33087247247 1.41778702532 0.0 
0.946705415179 0.762992344339 0.0 
1.52823708853 1.52190490773 0.0 
0.758627275904 0.605810799282 0.0 
0.73795001127 1.41133944357 0.0 
0.147953433358 1.13928783991 0.0 
0.147956163101 0.860711787058 0.0 
1.87276146476 1.05151455668 0.0 
1.82389505288 0.797717406951 0.0 
0.587918710093 1.5828762564 0.0 
1.60407245393 1.06137131263 0.0 
1.01974055141 0.562418334501 0.0 
1.31037569453 1.62698823397 0.0 
1.08624804944 1.48585406331 0.0 
0.516731788468 1.19353819307 0.0 
0.508797627657 0.797120859282 0.0 
0.958685453322 1.48804268025 0.0 
1.24924656928 1.20643025713 0.0 
1.38014275226 0.596341120218 0.0 
1.42821916193 0.783757010894 0.0 
0.724691627643 0.744853231417 0.0 
0.724164552481 1.23636665333 0.0 
0.373667140017 1.26263545247 0.0 
0.373915662532 0.737519368368 0.0 
1.79219667787 0.684813703232 0.0 
0.416029550049 1.07717938674 0.0 
0.416030314599 0.9228199333 0.0 
0.970422603827 1.69233433659 0.0 
1.07772079425 1.68707603868 0.0 
1.58202523384 1.2841763185 0.0 
1.56194207051 0.880978162695 0.0 
0.930181449554 1.39374088836 0.0 
1.15649719319 0.319842389495 0.0 
0.170422896883 1.25435597497 0.0 
0.169816532221 0.757804453405 0.0 
0.63265719944 1.26688063034 0.0 
1.68554737643 1.18420167587 0.0 
0.463355861068 1.25766794543 0.0 
1.06773183973 1.29944210753 0.0 
0.462612873028 0.742153161144 0.0 
1.40160676126 1.32771367018 0.0 
1.02116405521 0.304061172479 0.0 
0.949632586331 0.658818356919 0.0 
1.62245957622 0.723979460388 0.0 
0.773920321797 1.66469816442 0.0 
0.881073246858 1.20094139252 0.0 
1.24562125302 1.3736206901 0.0 
0.96832734501 0.460721249933 0.0 
1.13608880142 1.40484872359 0.0 
1.73523430045 1.39000133318 0.0 
0.593016192125 0.77443628783 0.0 
1.17320742453 0.46848957407 0.0 
1.35903381339 0.3576450983 0.0 
1.29480700937 1.52903822605 0.0 
0.386151460553 0.489110173469 0.0 
0.277593438529 1.41213347244 0.0 
0.701729270953 1.48638068165 0.0 
1.1637496332 0.65421247591 0.0 
1.34613025787 1.20175522741 0.0 
1.65560547519 0.523947022131 0.0 
0.742724137372 0.511034475993 0.0 
0.80056926806 1.54339092613 0.0 
1.04142555279 0.79914073448 0.0 
0.784177348189 0.805680092648 0.0 
1.42777450638 1.43513732633 0.0 
0.839270332151 1.36998267793 0.0 
1.74266455709 0.992798495432 0.0 
1.71893631533 0.895224659819 0.0 
1.48557923813 0.41247754886 0.0 
0.822701599997 0.312583359104 0.0 
0.583274558293 1.49121534317 0.0 
0.264900800766 1.04944227944 0.0 
0.26491511571 0.950549880934 0.0 
0.688375644496 0.341632822741 0.0 
0.578118575255 1.22223701346 0.0 
1.29263590539 0.485906032095 0.0 
0.593946219151 1.34160087247 0.0 
1.80229164369 1.31414320665 0.0 
1.46866995677 1.59833095401 0.0 
1.48619418382 1.15939916987 0.0 
0.861256473202 0.456666601196 0.0 
1.46051374805 0.548908357635 0.0 
0.480891949784 1.12450391662 0.0 
0.481573702817 0.876215849769 0.0 
0.517479505383 0.403651717007 0.0 
0.452074609803 1.42578943675 0.0 
0.456338670162 0.576358393139 0.0 
1.58023368014 0.594628158778 0.0 
0.587283286485 0.658234933806 0.0 
1.27664601305 0.800580521528 0.0 
0.344269130975 1.35574317439 0.0 
0.889992696233 1.53553385984 0.0 
1.88358558832 1.14932012821 0.0 
1.42056715063 0.686127386776 0.0 
1.90611964335 0.967741263794 0.0 
1.89105840727 0.86828338329 0.0 
0.654652477658 1.65821642972 0.0 
0.407925929411 1.5418768693 0.0 
1.1646940092 1.54158972576 0.0 
0.344225463196 0.654253785879 0.0 
0.847324045796 0.632160242469 0.0 
1.25463456643 0.658023496695 0.0 
0.0972690147477 1.05011143214 0.0 
0.0972693380593 0.949888923307 0.0 
0.243597838867 0.604459848955 0.0 
0.650494451348 0.741406719854 0.0 
0.583115128559 0.500670562251 0.0 
0.96730771105 1.20477239663 0.0 
0.495028019871 1.59092518135 0.0 
0.354699444592 1.14840745243 0.0 
0.354701186335 0.85158752003 0.0 
1.12695388409 0.561536693768 0.0 
0.28890146604 1.22538320376 0.0 
0.288878995396 0.774622276003 0.0 
1.57352937557 0.968097812157 0.0 
0.422222330921 1.0 0.0 
[...]
<PointData Scalars="solution">
<DataArray type="Float64" Name="Real part" format="ascii">
0.281488146136
5.67431023877
-0.43587537816
1.16266704355
-0.700411989311
0.188076838893
0.265963875609
0.416146836547
-0.286715209632
0.265963875609
0.416146836547
-0.362357754477
-0.0906716244643
-0.1699671429
-0.209238665891
-0.399339529406
-0.399339529406
-0.362357754477
0.227202094693
0.281352902827
0.254377208111
0.0
-0.431399455355
-0.511007607581
-0.276380586683
0.252935386136
1.04596464432
2.04381010788
3.15972222882
4.32997139291
5.20727392709
6.01880778559
6.62386933882
6.89006308361
6.92645667415
6.75798898099
6.50214431343
6.23788431013
5.9726619932
5.78139138663
5.68607865822
5.71084899711
5.54180473482
5.24701741863
4.71820268327
4.00559086874
3.17836759977
2.24670949187
1.5403051769
0.978335519898
0.757864752954
0.824020857863
1.12400020069
1.60192607574
2.08328414571
2.48485666458
2.70789903942
2.70746438319
2.47221951837
2.04145571112
1.40282751216
0.751057915762
0.0944247012801
-0.784635745457
-0.903420576598
-0.762985406853
-0.431109839948
0.0748254846108
0.669751739157
1.22781060956
1.66663496996
1.98080732019
2.03527704254
1.83813092391
1.45368050187
0.946075985408
0.382283612306
-0.108059392835
-0.453738011346
-0.60098791391
-0.505020724546
-0.215898949602
0.229747791643
0.718205964124
1.46797639439
1.56140148071
1.41474810383
1.04346427129
0.507085318444
-0.118442896214
-0.715532745336
-1.19235482198
-1.45702083059
-1.47193904498
-1.23028378898
-0.759692287318
-0.155547684623
0.495354643408
1.09397469531
1.55024777202
1.81990433916
1.82747245774
1.61581528659
1.23008706023
0.746138232261
-0.478847151054
0.0824433265216
0.0291995223017
-0.0241273186519
-0.077385547054
0.367082248145
0.316973762158
-0.23759309285
-0.187855330589
-0.137630802136
-0.0870496480755
-0.0362429330711
0.0146576937455
0.0655203399006
0.116213211335
0.166604953905
0.216564993745
0.442590711117
0.442590711117
0.31449217842
0.369513772931
-0.11056977982
-0.130423708738
-0.343645746316
-0.399339529406
-0.2585436556
-0.314640940881
-0.389490514621
-0.389490514621
0.207681001609
0.27366714652
0.0
-0.518834642765
-7.21273475884
-1.33546445053
0.153409157333
0.304627942013
-3.79911640707
-0.427637311898
-0.782556957112
-3.57566325163
-0.298953317538
-0.984886662287
-1.6643606605
0.348840534914
-1.35230283246
-8.07411628888
-8.50181764078
-5.30133765398
-1.01622864127
1.06844296
-1.07781278234
-0.255021350095
-0.156934096428
-2.62338908399
-0.662608168375
0.0205808275995
-0.435008585997
-1.31001077314
-0.569877702268
-0.824469893531
-0.957017978907
0.0435787088245
-0.0502747733341
0.561320655571
-0.719146986831
-3.09630137328
1.10501110123
0.27150194755
0.0943957879646
1.35594182948
-0.726463784398
-1.14876163596
-0.0276370099251
0.631438204701
-8.64921659437
-0.988000485489
0.794017052651
-5.07137613546
-4.32098214359
0.509273198803
1.84880553261
-6.40410046224
-0.253090142805
-1.000363508
-0.792898858904
-0.0066134715999
0.386009948878
-0.211600152118
1.32095068538
-2.53145409353
-6.8403070653
-0.646466916044
3.09780121418
-1.1460679349
-4.12191279503
0.691838682706
-0.88637193955
-0.56585236334
1.19617601852
-0.170727170998
-1.65203180307
0.0252248663457
2.6055508954
-6.86458173062
-1.60021795205
-0.724909401222
-4.56262570817
-4.70799526841
-0.300174335651
-0.01421059435
-0.986496301109
-3.35312695769
-0.72788736249
-0.286361129112
1.16776714064
-1.06840853672
-1.02507905164
3.53166760939
3.14167901131
-2.94212544465
-0.0996996144838
-6.42066799688
1.48033962298
1.7678483752
-0.289730558813
-2.88113132142
-2.22158407478
-1.81614307942
-7.26411266488
-0.525640557221
-6.67530182925
1.29808996252
-0.672066387802
0.127360855426
2.60503051685
-3.82369638451
-9.18089128992
0.308730588163
-9.31798397062
1.73770141023
-0.688537412771
0.828773376689
-0.0602755933206
-2.85964211582
1.49273992874
1.55170694164
-2.47323904981
0.0794349673473
-4.7715329543
-0.607408318719
-0.895335425642
-0.636706279271
-0.288338769898
-0.768465771855
-3.41142605342
-5.31954561199
-0.882425517941
-0.0772727040285
-1.0878146559
-0.102966187589
-1.97138521252
-0.779156714739
-1.1183862194
-0.495761123512
-1.81552078538
0.231176213019
-3.50822909772
0.393765155004
4.68724787294
-2.85679990128
-0.336244988366
-0.675945553773
-1.0959519397
-0.793838294143
0.479610818767
-1.20514439842
0.514578288038
-0.502798907881
-0.711629676111
0.0644233687275
0.189239141218
-1.37796576559
-0.797156040827
-0.231755109239
0.254972893761
1.05722395003
1.59075620632
0.367583743235
-4.18873663785
0.553492390514
-1.04349569619
0.0479477171075
-0.0841097152838
-0.779505202645
1.23880256041
-0.838133499293
-0.203376253407
-3.44397174975
0.162646592682
-0.843999062646
-0.973580005203
0.379872958388
0.230643086531
-0.453812827077
-0.480792155183
-0.988132289974
-0.296222098722
0.302073562573
3.98065353379
4.4839082618
0.0638110267335
0.0572605293008
4.07919093598
0.52767207727
-2.53454489852
-2.29931979477
-5.17247261141
-3.00368515759
-5.10810736266
-0.245847911023
-0.654696322076
2.17656278762
0.562698953756
-1.90657803668
-1.28772336151
-4.06876283456
4.94001783864
0.568093918927
-1.43363320111
-0.44903989435
-1.16235061616
-0.653136517417
-0.63671350577
1.14105561531
-2.01912382784
4.07760513211
-0.0802756662439
-6.1907882206
-2.23590158505
-1.27598725854
-3.11486907246
-0.944254682235
-0.971435119351
-2.68572026084
1.19538655278
-0.803857121503
-0.910719273204
-4.31215677482
-7.85334600869
-1.87924654563
-4.74933252909
-0.16484022121
-7.29020624083
-0.95341103029
-1.17669492842
0.0849661059441
-0.788141450142
-0.639110714101
-0.68576773701
0.803448739237
0.66888608697
-0.773782525733
-7.81604880808
-1.05961205344
-5.33448377438
1.54567889561
-0.643053695815
0.93464597391
1.53248942387
-0.624402945128
-4.98079177348
3.35441156929
-0.116333997394
-1.34863731018
0.812366385969
-0.265186659038
-1.10798183538
-0.658419584645
-9.10821417453
-0.351931730382
0.281223448486
0.0153948555813
0.903235261083
-1.07408727105
-0.170202598303
-0.985787454455
0.707857218304
-0.128000952943
0.697705006063
1.42618092112
-1.27629661924
-0.760831667337
1.58541197697
-6.39734331306
-3.9114126886
-6.31028517708
-0.015492479178
-2.67578370338
-0.410940172456
4.68375543796
-1.75791672566
-0.902052529145
-0.165685772245
-0.736655812767
1.79813310107
-1.45442609663
-0.141176094856
1.20762723612
0.0450524558594
-0.422214405279
-0.606244361973
-4.35767601159
5.64578807815
-0.404228205879
0.55665754765
-3.74969729121
-6.76464179171
-8.68187169198
-7.91155187561
0.0171426844379
-0.510039854265
1.52534446317
-1.28784465638
-4.68590513959
-0.219626084272
-0.052678935232
-0.579091521686
0.0966816319588
-0.707130618392
-0.521910769048
-0.0619341688321
2.6725498268
-0.752180851089
2.17015678277
-4.80332647857
-0.123673435213
0.631995449275
0.89944088944
-1.36119024732
-2.05024706425
-8.04792565168
-1.74788697913
-0.928774482621
-1.93724759567
-0.388765243758
-1.91735827847
0.0269154537818
0.312190301413
2.31088117239
-0.367356264938
-3.35327303803
-1.32603510458
-0.583033788304
1.68509265427
-1.11437107282
4.80519054917
0.998761660436
0.593213113478
-0.896545475054
-1.37432634329
-3.34547351776
-1.30562431688
1.41132806024
-2.33474246046
0.149188252131
0.995999948644
-0.286109989365
-1.19782299723
0.00147853380042
-2.44588845472
0.506484264432
-0.391727128535
-0.686148582216
-1.19042780521
5.32124000188
1.07388125403
-0.182673578267
-0.866134188004
-0.825435936758
-6.09738714042
-0.925005308698
-0.650267958508
-3.15993373405
-1.91507519992
-0.0497946402436
-3.62644763225
-1.65601279716
-0.719767178171
-1.04659864041
-2.91440974942
-4.46847897595
-9.0420427622
-1.95275486165
-0.901986157919
-2.3061318873
1.87302185424
-1.92672208312
-0.99176764364
2.96170731646
-0.551927095757
-0.304465538738
-0.785123718018
-2.15905705014
-5.6613607552
-0.00646383930165
-0.479530592513
0.467919795729
0.120502725426
-6.23391896462
1.00500135839
1.23874802415
0.17282202235
0.659425187667
0.85574092392
-2.88731531465
-1.16800385796
-0.940439542947
-2.66109141639
0.614297600245
0.264960365001
-0.984070379233
-4.36179220721
-9.46869390503
0.512388592106
-0.503045053166
0.163164811441
-7.27556722313
0.969138672362
-0.0193277289721
0.371920655958
-0.570455378831
-0.115786858974
-1.03918621893
0.0370730642223
-0.518348281744
2.38105757247
0.0968871098327
1.55059270138
1.45343165674
1.42445818903
-4.95137175953
-2.30047530704
0.51237377915
-3.10897780586
1.7013226035
-4.3225308071
-4.823219352
0.731710019722
-0.450859824078
0.167871189564
3.33094970124
-1.0644814829
4.07266342809
1.59281277837
-1.12021857104
-1.15373526026
-2.66325878792
-0.430505968437
-0.773315543447
1.39553909868
0.135376117411
-0.406108762694
0.286738732335
1.14250428042
0.0272995895761
-0.918895621816
-3.43961029524
5.00585067382
-0.185477380248
1.01161789943
-0.451759500116
-0.838008425159
-1.12269661205
-0.231345548616
-1.74146572892
0.241609875473
-0.832832604946
5.71130550512
-5.83920903794
-4.36318031941
6.00423953693
-0.542676699014
1.38339851243
-0.351358671337
-1.84804620672
0.520013118806
-1.12555758461
-3.55643363793
-0.324953787521
-2.09715255547
-0.0971831341809
-2.82743702826
0.271484712864
-8.0576008357
-7.97111788204
-0.654591894329
-0.251893567702
-0.313840814529
-0.368406472899
-4.90100880544
-0.368255457607
2.7409504006
2.53527985736
0.219766087317
-1.3954378708
-0.121125113941
0.141882504227
4.64790536163
-1.81596029148
-0.876681675679
0.510249537025
-0.102733804098
-0.192045440591
3.02531876492
2.03179418368
-8.66791805809
-4.76519896215
-0.15322199392
-2.0056609456
-0.0709242205817
-7.64307111079
-0.61866516252
0.984970333508
-0.131012459829
-0.680323893902
-0.544300011959
0.926194805508
5.07391117298
5.08064726137
-1.37886033926
-0.789647094386
-0.741206623731
-0.0556820253186
0.448344665575
-8.91386434787
-0.462136281471
0.952079138578
-3.98321423542
-0.527653505166
-3.09056333863
-4.60057787283
-4.72653109026
-1.37668782044
-0.485684491283
-1.15941145953
1.06206609146
6.29930150072
-0.410674179463
-3.10945393404
-0.240208464285
-0.944052041738
0.906805679194
-0.603704821281
-1.11495564553
-5.6401406024
0.0859338790359
-2.7786650544
-3.82627623511
0.700603753083
0.172595832022
-6.32875252562
-0.0258586232684
3.23968553298
-7.43597490278
-0.529729321851
-1.23557931162
1.72335457526
-0.442974165307
0.474423015754
1.35795844818
-8.33001919154
-4.72361584834
-1.50357239058
-2.20364057941
-1.18166437013
0.311247288477
-0.718370372226
1.43517878633
0.112626899464
-1.60085956088
-1.04750293679
1.05708839568
0.415126655454
-0.307255399731
0.142789897907
1.25452679623
-0.462380214083
0.559203936546
0.950237776064
-2.49329914349
0.0691970301386
1.18906999042
-0.645898295552
-1.14443588305
-2.39988280552
-0.868328078918
-0.604615175395
-1.10862088076
0.207300084475
-0.43273613378
0.138746634359
-0.905982517888
-4.1030390722
-1.00980183757
-2.16779090607
-0.859333556345
0.735631620338
-1.03897347687
2.38772179225
-1.09538741274
1.8276736022
-4.01436569763
2.10685729526
-0.259303254844
0.0927974852562
1.71907383148
-0.67363554349
-1.06535943352
-1.20258188161
0.0209047257507
-1.0923073713
0.705807583335
-0.771345349175
-5.24129491234
-0.388782630828
-0.885334428381
1.16636525539
-0.281198752884
-0.497064117315
0.0673884204479
5.35845601915
-1.00243168156
-0.418748677572
-1.67548681927
0.146443431665
0.106365877902
-0.200438676054
-0.827070640716
-1.95643718476
-0.125376071292
-9.23241407151
-8.15829399062
-0.549048362592
-1.83320790953
-0.294156727851
-0.445871034393
-0.74087814839
0.162129526327
-0.0790059326393
-5.92605711754
1.31720361753
0.423771582676
-0.730027573408
-0.646350195124
2.98290900023
1.35532526624
-0.431076685805
-0.483873145894
-0.737199358445
-2.51831007072
-5.27725682176
-0.540301520441
0.928636331316
0.736942395744
0.545997453999
0.797134317964
0.251496865635
0.39396049934
0.0229607714855
-1.80660601441
-0.320783554424
-0.023924902214
-0.840982037968
-0.545406021266
-1.02129019978
-1.90060600966
-1.35167458197
0.134072806583
0.57084173438
2.55023505096
-6.80587988703
0.207816001585
-0.827439736638
-2.75239720488
-0.573903811497
-0.844994133741
-0.77837827002
-0.51612199654
-6.53379875849
-0.636369876189
0.030819056812
-2.69442396773
-0.71413555127
-0.124071722078
-1.07427839642
1.25793698426
-0.803076392926
-0.216965703039
2.2734721655
-0.502644264347
0.464804166956
0.660122227112
-3.38900698104
-6.51436597129
0.796873767583
-0.123661327308
-3.92492295662
-5.33913843462
3.57068662383
-0.930628183982
0.843945731842
-0.470861512544
3.50014736986
0.900598891699
3.12146232044
6.13997439785
-1.09593648256
-0.938404713328
-5.98214357072
-1.79405544084
0.171329071134
1.08863268168
1.1683122469
-0.0116513005932
-0.0104208406232
1.63208801281
0.631405764598
1.5279671385
-4.77098245918
0.91054869189
-3.10977495467
1.08094057948
-0.858555800571
-0.65747411449
0.370548367716
-7.43320921788
0.304578910357
-3.54660871478
-5.70049229583
-1.10228031911
-1.94903251892
4.72337290399
-1.23819142621
-0.557008098473
0.6258728219
-0.194470824687
3.98653746984
0.658838439997
0.179695298105
1.00983593449
-0.103452191445
0.110066481998
-0.408216446961
0.545770037482
-0.951813218684
0.181362173221
0.513728206403
-4.31863203314
-0.701599491518
1.57419011353
-1.65269499192
-0.503898569935
-0.0805672203358
-1.57065308331
5.23688100171
-0.29430125651
-0.471164608615
-0.183854207515
-6.68062076331
-0.260201904602
-6.63343108393
0.566600976158
-0.916317947956
-0.752176470723
0.912029863258
-0.595832227951
-1.0396669948
-1.16649487919
4.3506727241
-1.62524280215
0.609550249153
-0.387976077623
-0.655604990526
0.0302944462523
-0.0674757483697
1.04952362428
-0.500211316649
-2.9292240531
0.563041882057
-6.605934104
-0.881588301522
-3.85289744009
-0.973480829359
0.175871109045
0.851115819121
0.61404571115
-8.71446571512
0.356743266634
-0.0186105072234
0.120057239225
-0.517989061934
-0.178718085104
-4.20250068139
-0.342452826651
-0.832773056133
-1.44291820368
2.27196869873
-0.0991077977781
-2.61543589211
1.28036846877
-8.15791757836
-1.09067999511
-0.876021031376
5.40794702637
-4.70361098415
-1.68302193357
-2.41203519759
1.81980155071
-1.54426953114
1.21865259049
-0.792916195692
-0.779493181978
-5.19391527519
-0.717237449753
-3.6832663284
-1.16129996885
-0.0222780142295
0.164559826849
1.34186858523
-0.111317455839
-0.100822206307
0.071388367316
1.49700662946
0.562117146009
-8.22002799678
-6.86518136467
-1.49234952643
-1.34384898047
-1.18589232454
-0.680478715996
0.0697049463491
-1.95379013138
-3.29294527082
-1.33175259887
1.91499492382
4.03241200768
-1.21381483588
-0.674164964791
-0.5908097941
-0.998427907525
-1.64026894464
-1.02127068369
</DataArray>
<DataArray type="Float64" Name="Imag part" format="ascii">
-0.845483502362
-4.35884230564
0.468085342193
2.61005577475
0.76497623169
0.982154317138
0.963982996152
0.909297426826
0.958015860289
0.963982996152
0.909297426826
0.932039085967
0.995880844538
0.985449729988
0.977864602435
0.916803108772
0.916803108772
0.932039085967
0.973847630878
0.959604368514
0.96710508012
0.0
-0.655135658185
-0.98186589412
-1.18435484181
-1.36309716179
-1.56172887303
-1.81232184762
-2.14663312097
-2.59776169585
-3.01457722752
-3.57656282071
-4.21904206461
-4.81496668536
-5.35816530949
-5.78863261216
-6.08880321659
-6.23393274054
-6.14803634229
-5.87722832308
-5.45665304561
-4.96719646629
-3.72711074722
-3.1097274446
-2.53510786434
-2.06064570708
-1.73620718922
-1.52519695874
-1.59258852834
-1.74449795823
-2.06918187824
-2.43379824819
-2.75441425256
-3.00116701628
-3.05031332041
-2.90852943641
-2.57395159584
-2.1075265367
-1.54443297984
-0.972433644285
-0.406516988822
0.0335169979554
0.336569572225
0.432710080483
0.240267568603
-0.0697574576114
-0.457527423516
-0.838061766242
-1.19655203318
-1.41712248597
-1.486631427
-1.43278521494
-1.1693208702
-0.739957339477
-0.191930058347
0.436089865317
1.07658646419
1.69422526255
2.20971671381
2.58391787245
2.88047263766
2.93149339325
2.94320213092
2.79237925952
2.43215338828
2.25784373707
2.11249785007
2.03341913357
2.02201987344
1.97400085654
1.97906782195
1.94403044523
1.82167318537
1.63059559553
1.3565587672
0.961724357249
0.520903049796
0.0290439114784
-0.455753914471
-0.896229100039
-1.26763503862
-1.49547082793
-1.58634592612
-1.519872321
-1.28986730551
0.959726369147
0.996595754512
0.999573603041
0.999708893876
0.99700124228
0.930188487941
0.948434306688
0.971364773002
0.982196708796
0.990483600219
0.99620397448
0.999343009083
0.999892570236
0.997851233932
0.99322428963
0.986023726558
0.976268202639
0.896723738078
0.896723738078
0.94926006432
0.929225253431
0.993868363412
0.991458348192
0.939099356319
0.916803108772
0.965999574611
0.949210766016
0.921030476705
0.921030476705
0.978196606808
0.961824460552
0.0
-2.76836069976
4.16813672834
0.411770797026
-0.612864892567
-2.75013702422
2.92310993111
-0.156536586781
-0.573495758491
3.0705507708
0.681517863676
0.607584943105
0.631613739353
-0.272164721688
0.025994517357
6.68041263889
6.89276691918
5.69570492935
0.430694422819
-0.796870438085
-1.66796866709
-3.58639127945
-1.22391724146
2.48047378062
-0.0403079618483
0.261281018934
0.287232046162
1.50661806777
0.735445460508
0.582301880907
-0.537242394862
-0.725763846906
-1.51103545106
-0.292764339744
0.828071570034
2.77617557125
-1.29581758695
-0.81632484764
0.0933544373034
-0.902860929632
0.719606184495
1.41248536729
0.178219212682
-2.64982271938
7.1048851905
-0.65774686401
0.0838950166717
4.69133375574
4.49610214891
0.980584976615
-1.28198927981
6.37918196375
0.975249701058
0.949342547173
-0.563462191876
-2.27839018989
-1.92821573956
-0.519362496088
-1.25796998037
1.53660990188
4.43416962042
-2.12002051223
-2.59574345615
-1.65777675273
4.00935164104
-0.0233599860551
0.275096947291
-0.630414947219
-1.1867593323
-0.469098440827
1.73180177057
-3.59502616363
-4.07056266399
4.34980584059
1.92803898911
0.509670850527
3.39291979173
4.74020634309
-1.07815544855
-0.149287246587
-0.605680339306
3.97506739823
0.436584267924
-0.211839217262
-0.766137871223
1.53501714144
1.19780617321
-3.09084072657
-3.8163432705
2.40794687358
0.638076849124
5.68626547798
1.18336480369
-1.19494863948
-0.479942670974
3.17892202035
1.33026430966
1.59043795974
6.5252267742
0.0332899305773
5.27005641641
1.60432479738
-3.54424256206
-0.0609565718208
-1.45544051661
4.57578132046
6.70813181541
-1.59293477796
6.7895678661
-1.45499921553
0.408610163034
-1.7443022719
1.41458104093
0.332877853302
-0.857908234367
-2.44432850785
2.25594996978
-3.52328422224
4.75771574295
0.797386220374
-0.709079809397
0.808261442132
-1.55820205912
-0.323329503015
1.97852400927
5.229421749
0.175580285261
-0.140744953556
1.49582392047
2.24024692307
1.0445306191
1.10032426004
1.07770847067
1.96902833361
2.2101793398
-0.975048378494
3.13763337372
-1.09953493433
-4.30331858741
3.1718568433
-0.733358291612
0.0948844252404
1.59657752683
0.945483760514
0.565509319609
-0.193371621045
-0.703167928023
0.378744497906
-0.4712006588
-0.800121164404
-1.06336792272
1.08081925575
-0.693685107094
-0.770887823173
-1.06826119426
-1.41755887132
-1.14573668171
-2.12818960711
1.40090504101
-0.909959129521
-2.65882439912
-2.68206883901
0.453268974741
0.560172824499
-1.40255262257
-0.0686285558349
-0.036324740043
4.14387136909
-1.49549474193
1.14328806838
0.715101643368
-3.48009344398
-0.102644796298
-0.112570951244
1.09276534993
1.40740809804
-0.391942450881
-0.3254707175
-2.54468811583
-3.01772927561
0.124727778649
0.469617838384
-5.25908225897
-0.0958846665434
3.41009684603
1.60112881586
5.000485106
3.5161482699
5.23795521348
-0.0520086085975
0.0786219020905
-1.96792632676
-1.13109305277
2.28536401335
-0.72428055837
3.68241932936
-5.20809934838
-0.360564180991
1.0286852627
0.323231992687
-1.34325075217
-0.792362225744
0.211598361276
1.43268037329
2.00556893912
-5.01936884617
-1.11907263562
6.22034126816
1.60487558042
-0.11978230884
3.52544775685
-1.86228394356
0.582692407449
2.05534034806
-0.285079547844
-0.16855707635
-2.7199188921
4.14495902768
6.6642203425
-0.687528604951
3.95498157322
0.259139097565
5.24727646857
1.3277761939
1.16262096145
-0.241201633093
1.42783460048
0.901723847012