<VTKFile type="UnstructuredGrid" version="1.0" byte_order="LittleEndian" header_type="UInt64">
<UnstructuredGrid>
<Piece NumberOfPoints="958" NumberOfCells="1780">
<Points>
<DataArray NumberOfComponents="3" type="Float64">
2.0 1.0 0.0 
1.0 1.8 0.0 
0.0 1.0 0.0 
1.0 0.2 0.0 
0.7 1.1 0.0 
1.1 1.1 0.0 
1.2 1.1 0.0 
1.4 1.1 0.0 
0.7 0.9 0.0 
1.4 0.9 0.0 
1.5 1.0 0.0 
0.5 1.0 0.0 
0.65 1.2 0.0 
0.6 1.15 0.0 
0.6 1.1 0.0 
0.65 0.8 0.0 
0.6 0.85 0.0 
0.6 0.9 0.0 
1.05 1.2 0.0 
1.15 1.17 0.0 
1.1 1.185 0.0 
1.99675968933 1.06434965354 0.0 
1.98710604629 1.128054122 0.0 
1.97123406146 1.19050148196 0.0 
1.94944745438 1.25114079731 0.0 
1.92213186649 1.30950057401 0.0 
1.8897254802 1.36519677535 0.0 
1.85269162732 1.4179316604 0.0 
1.81149626591 1.46748608392 0.0 
1.7665915679 1.5137080061 0.0 
1.71840510877 1.55649997646 0.0 
1.66733421564 1.59580670403 0.0 
1.61374382978 1.63160418563 0.0 
1.55796667225 1.66389068626 0.0 
1.50030533245 1.69267923858 0.0 
1.44103507004 1.71799189611 0.0 
1.38040705039 1.73985532684 0.0 
1.3186517997 1.75829747431 0.0 
1.25598252981 1.77334512634 0.0 
1.19259837055 1.78502213682 0.0 
1.12868743671 1.79334816312 0.0 
1.06442974759 1.79833779622 0.0 
0.935570252407 1.79833779622 0.0 
0.871312563294 1.79334816312 0.0 
0.807401629457 1.78502213682 0.0 
0.744017470193 1.77334512634 0.0 
0.681348200302 1.75829747431 0.0 
0.6195929496 1.73985532683 0.0 
0.558964929955 1.71799189611 0.0 
0.49969466754 1.69267923858 0.0 
0.442033327743 1.66389068626 0.0 
0.386256170218 1.63160418562 0.0 
0.332665784354 1.59580670403 0.0 
0.281594891222 1.55649997646 0.0 
0.233408432094 1.5137080061 0.0 
0.188503734085 1.46748608392 0.0 
0.147308372675 1.4179316604 0.0 
0.110274519798 1.36519677535 0.0 
0.0778681335091 1.30950057401 0.0 
0.0505525456175 1.25114079731 0.0 
0.0287659385388 1.19050148196 0.0 
0.012893953709 1.128054122 0.0 
0.003240310674 1.06434965354 0.0 
0.00324031067404 0.935650346463 0.0 
0.0128939537092 0.871945878002 0.0 
0.0287659385392 0.809498518039 0.0 
0.0505525456181 0.748859202686 0.0 
0.07786813351 0.690499425987 0.0 
0.1102745198 0.634803224652 0.0 
0.147308372677 0.582068339602 0.0 
0.188503734087 0.532513916077 0.0 
0.233408432097 0.486291993899 0.0 
0.281594891225 0.443500023541 0.0 
0.332665784358 0.404193295971 0.0 
0.386256170223 0.368395814372 0.0 
0.442033327749 0.336109313741 0.0 
0.499694667547 0.307320761417 0.0 
0.558964929964 0.28200810389 0.0 
0.61959294961 0.260144673163 0.0 
0.681348200297 0.241702525687 0.0 
0.744017470189 0.226654873658 0.0 
0.807401629454 0.214977863176 0.0 
0.871312563292 0.20665183688 0.0 
0.935570252406 0.201662203776 0.0 
1.06442974759 0.201662203776 0.0 
1.12868743671 0.20665183688 0.0 
1.19259837054 0.214977863175 0.0 
1.25598252981 0.226654873658 0.0 
1.3186517997 0.241702525687 0.0 
1.38040705039 0.260144673163 0.0 
1.44103507003 0.28200810389 0.0 
1.50030533245 0.307320761416 0.0 
1.55796667225 0.33610931374 0.0 
1.61374382977 0.36839581437 0.0 
1.66733421564 0.404193295969 0.0 
1.71840510877 0.443500023538 0.0 
1.7665915679 0.486291993897 0.0 
1.81149626591 0.532513916074 0.0 
1.85269162732 0.5820683396 0.0 
1.8897254802 0.63480322465 0.0 
1.92213186649 0.690499425985 0.0 
1.94944745438 0.748859202685 0.0 
1.97123406146 0.809498518038 0.0 
1.98710604629 0.871945878001 0.0 
1.99675968933 0.935650346463 0.0 
1.03333333333 1.1 0.0 
0.966666666667 1.1 0.0 
0.900000000001 1.1 0.0 
0.833333333334 1.1 0.0 
0.766666666667 1.1 0.0 
1.33333333333 1.1 0.0 
1.26666666667 1.1 0.0 
0.763636363636 0.9 0.0 
0.827272727272 0.9 0.0 
0.890909090909 0.9 0.0 
0.954545454545 0.9 0.0 
1.01818181818 0.9 0.0 
1.08181818182 0.9 0.0 
1.14545454545 0.9 0.0 
1.20909090909 0.9 0.0 
1.27272727273 0.9 0.0 
1.33636363636 0.9 0.0 
1.48660254038 1.05 0.0 
1.45 1.08660254038 0.0 
1.45 0.913397459622 0.0 
1.48660254038 0.95 0.0 
0.675 1.15 0.0 
0.625 1.175 0.0 
0.675 0.85 0.0 
0.625 0.825 0.0 
0.55 1.08660254038 0.0 
0.513397459622 1.05 0.0 
0.513397459622 0.95 0.0 
0.55 0.913397459622 0.0 
1.075 1.15 0.0 
1.175 1.135 0.0 
0.856654190803 1.46085887936 0.0 
0.908868306323 0.550180709946 0.0 
1.21273813367 1.46996044557 0.0 
0.430116348782 1.34488365122 0.0 
0.430116348782 0.655116348782 0.0 
1.22382203998 0.564691770018 0.0 
1.49246889226 1.35917654483 0.0 
1.49655910943 0.639636497688 0.0 
0.64886687676 0.556293501929 0.0 
0.638596140586 1.41751991771 0.0 
0.280864614173 1.13902010263 0.0 
0.280869912959 0.8609743343 0.0 
1.73666975204 1.09021038818 0.0 
1.69121308975 0.807538901795 0.0 
1.02250248409 1.58835606429 0.0 
1.29519808664 1.29293700591 0.0 
1.03046957739 1.3888514726 0.0 
0.815029813373 1.27796255107 0.0 
1.690086742 1.29110000892 0.0 
1.065888551 0.412958090784 0.0 
0.808738933503 0.724462410026 0.0 
1.06060811355 0.694087699937 0.0 
1.39373271353 1.52977537718 0.0 
0.545023108551 1.27997689145 0.0 
0.543439019099 0.721476629956 0.0 
0.727636910916 1.57766371085 0.0 
1.39157561257 0.469788417814 0.0 
0.427161013003 1.18126870315 0.0 
0.762249366457 0.415460312845 0.0 
0.427161013003 0.818731296851 0.0 
0.490615953542 1.50085334351 0.0 
1.81378156774 0.936203036118 0.0 
1.33076376899 0.714655109147 0.0 
0.493685826933 0.498677052194 0.0 
0.180896017439 0.99999534807 0.0 
1.58090237648 1.18032139312 0.0 
0.267130194943 1.30512264658 0.0 
0.265004460454 0.700254638264 0.0 
1.66904299388 0.630219753909 0.0 
0.87140022823 1.61912698253 0.0 
1.65237847991 0.956329793345 0.0 
0.343194309664 1.0 0.0 
1.54123377406 0.791004527643 0.0 
1.18168192693 1.62614977736 0.0 
1.16412477732 1.31773565832 0.0 
0.656013207263 0.679433207619 0.0 
1.24573514152 0.400120460568 0.0 
1.44154298652 1.23243486438 0.0 
0.695934673571 1.3123473463 0.0 
0.925648088664 0.358008854864 0.0 
1.64128972417 1.42739745158 0.0 
0.943907028071 1.28723216922 0.0 
0.615786505298 0.410914954202 0.0 
1.53505362686 0.500858300997 0.0 
1.81903782133 1.22072555655 0.0 
1.18843379897 0.748399020953 0.0 
0.367238171051 1.45634468909 0.0 
0.532728749488 0.605466578654 0.0 
0.327091014398 0.576147086551 0.0 
0.525001989753 1.39459908758 0.0 
1.33087247247 1.41778702532 0.0 
0.946705415179 0.762992344339 0.0 
1.52823708853 1.52190490773 0.0 
0.758627275904 0.605810799282 0.0 
0.73795001127 1.41133944357 0.0 
0.147953433358 1.13928783991 0.0 
0.147956163101 0.860711787058 0.0 
1.87276146476 1.05151455668 0.0 
1.82389505288 0.797717406951 0.0 
0.587918710093 1.5828762564 0.0 
1.60407245393 1.06137131263 0.0 
1.01974055141 0.562418334501 0.0 
1.31037569453 1.62698823397 0.0 
1.08624804944 1.48585406331 0.0 
0.516731788468 1.19353819307 0.0 
0.508797627657 0.797120859282 0.0 
0.958685453322 1.48804268025 0.0 
1.24924656928 1.20643025713 0.0 
1.38014275226 0.596341120218 0.0 
1.42821916193 0.783757010894 0.0 
0.724691627643 0.744853231417 0.0 
0.724164552481 1.23636665333 0.0 
0.373667140017 1.26263545247 0.0 
0.373915662532 0.737519368368 0.0 
1.79219667787 0.684813703232 0.0 
0.416029550049 1.07717938674 0.0 
0.416030314599 0.9228199333 0.0 
0.970422603827 1.69233433659 0.0 
1.07772079425 1.68707603868 0.0 
1.58202523384 1.2841763185 0.0 
1.56194207051 0.880978162695 0.0 
0.930181449554 1.39374088836 0.0 
1.15649719319 0.319842389495 0.0 
0.170422896883 1.25435597497 0.0 
0.169816532221 0.757804453405 0.0 
0.63265719944 1.26688063034 0.0 
1.68554737643 1.18420167587 0.0 
0.463355861068 1.25766794543 0.0 
1.06773183973 1.29944210753 0.0 
0.462612873028 0.742153161144 0.0 
1.40160676126 1.32771367018 0.0 
1.02116405521 0.304061172479 0.0 
0.949632586331 0.658818356919 0.0 
1.62245957622 0.723979460388 0.0 
0.773920321797 1.66469816442 0.0 
0.881073246858 1.20094139252 0.0 
1.24562125302 1.3736206901 0.0 
0.96832734501 0.460721249933 0.0 
1.13608880142 1.40484872359 0.0 
1.73523430045 1.39000133318 0.0 
0.593016192125 0.77443628783 0.0 
1.17320742453 0.46848957407 0.0 
1.35903381339 0.3576450983 0.0 
1.29480700937 1.52903822605 0.0 
0.386151460553 0.489110173469 0.0 
0.277593438529 1.41213347244 0.0 
0.701729270953 1.48638068165 0.0 
1.1637496332 0.65421247591 0.0 
1.34613025787 1.20175522741 0.0 
1.65560547519 0.523947022131 0.0 
0.742724137372 0.511034475993 0.0 
0.80056926806 1.54339092613 0.0 
1.04142555279 0.79914073448 0.0 
0.784177348189 0.805680092648 0.0 
1.42777450638 1.43513732633 0.0 
0.839270332151 1.36998267793 0.0 
1.74266455709 0.992798495432 0.0 
1.71893631533 0.895224659819 0.0 
1.48557923813 0.41247754886 0.0 
0.822701599997 0.312583359104 0.0 
0.583274558293 1.49121534317 0.0 
0.264900800766 1.04944227944 0.0 
0.26491511571 0.950549880934 0.0 
0.688375644496 0.341632822741 0.0 
0.578118575255 1.22223701346 0.0 
1.29263590539 0.485906032095 0.0 
0.593946219151 1.34160087247 0.0 
1.80229164369 1.31414320665 0.0 
1.46866995677 1.59833095401 0.0 
1.48619418382 1.15939916987 0.0 
0.861256473202 0.456666601196 0.0 
1.46051374805 0.548908357635 0.0 
0.480891949784 1.12450391662 0.0 
0.481573702817 0.876215849769 0.0 
0.517479505383 0.403651717007 0.0 
0.452074609803 1.42578943675 0.0 
0.456338670162 0.576358393139 0.0 
1.58023368014 0.594628158778 0.0 
0.587283286485 0.658234933806 0.0 
1.27664601305 0.800580521528 0.0 
0.344269130975 1.35574317439 0.0 
0.889992696233 1.53553385984 0.0 
1.88358558832 1.14932012821 0.0 
1.42056715063 0.686127386776 0.0 
1.90611964335 0.967741263794 0.0 
1.89105840727 0.86828338329 0.0 
0.654652477658 1.65821642972 0.0 
0.407925929411 1.5418768693 0.0 
1.1646940092 1.54158972576 0.0 
0.344225463196 0.654253785879 0.0 
0.847324045796 0.632160242469 0.0 
1.25463456643 0.658023496695 0.0 
0.0972690147477 1.05011143214 0.0 
0.0972693380593 0.949888923307 0.0 
0.243597838867 0.604459848955 0.0 
0.650494451348 0.741406719854 0.0 
0.583115128559 0.500670562251 0.0 
0.96730771105 1.20477239663 0.0 
0.495028019871 1.59092518135 0.0 
0.354699444592 1.14840745243 0.0 
0.354701186335 0.85158752003 0.0 
1.12695388409 0.561536693768 0.0 
0.28890146604 1.22538320376 0.0 
0.288878995396 0.774622276003 0.0 
1.57352937557 0.968097812157 0.0 
0.422222330921 1.0 0.0 
[...]
<PointData Scalars="solution">
<DataArray type="Float64" Name="Real part" format="ascii">
1.18070485056
-0.882033845324
-1.33878875061
-1.77880969592
-0.534703575507
-1.0
-1.0
-1.0
-1.0
-1.0
-1.0
-1.0
-1.0
-1.0
-1.0
-1.0
-1.0
-1.0
-1.0
-1.0
-1.0
0.0
-1.29972305572
-0.457331609924
-1.4389455371
0.247232463407
-0.0934940835604
0.0691886948944
-0.598754327558
-1.26788468922
3.65205541436
0.919978764454
0.852045561519
-0.257257419581
-0.218836624512
0.311504624403
-0.365308605934
-2.63301170812
2.83586873662
0.00654286559298
-2.48294380156
1.4421948546
0.86396491154
1.25964735236
-0.252303752813
1.61690590284
1.1283433921
-0.58610611728
-0.371232697337
-0.110528509417
-2.19928439695
-1.33371950609
1.06754272624
-0.20752312461
1.63329732956
1.24931991803
1.41324496381
1.89287048276
3.43665923317
-0.0690579064475
0.615220730472
-0.0844455422125
-1.37811362824
0.548787208902
0.0890940797801
0.127487823314
0.434761443742
-0.911142633269
1.0225135489
1.01229896482
0.845810276101
0.227805399489
2.54534617383
-2.03062596702
4.41668686261
-1.80983343466
0.467968860126
1.13888402628
1.09213854726
-1.93943809358
-0.048637371382
-0.639328632526
1.03495649146
-1.58170660974
-0.533356790056
1.28962770759
2.38673679096
0.885171742026
1.03727030836
-0.520471826155
-0.826903453047
0.396985417272
-0.11052241414
0.467856450133
0.0862249682135
0.159286151494
1.42066144616
0.233937591933
-0.590190836988
0.260712869258
-0.0842448313378
-1.09533199488
-1.93911758972
0.469274023131
0.119281005091
2.94230814954
-1.0
-1.0
-1.0
-1.0
-1.0
-1.0
-1.0
-1.0
-1.0
-1.0
-1.0
-1.0
-1.0
-1.0
-1.0
-1.0
-1.0
-1.0
-1.0
-1.0
-1.0
-1.0
-1.0
-1.0
-1.0
-1.0
-1.0
-1.0
-1.0
-1.0
0.0
-1.57084933255
-1.13084346206
1.49684610292
1.74714706274
-0.92223754801
0.725701206435
-2.37427370927
-0.055217352262
-1.04176741859
0.494286583701
1.08296528118
0.687137389753
-0.948176577128
0.106182755126
1.98413239468
-0.275279621122
1.25833040651
0.21056356373
-1.61300096258
0.361025372183
0.940007926644
-0.295809713932
1.17679734144
-0.329779291168
-0.772324338148
1.65222048943
3.22970082145
2.93671412366
0.0654834303888
0.76622470169
-0.114586146172
2.1823972139
-0.219606841244
0.178760995836
-1.7989893802
-3.05183826494
0.254930758912
-0.311580611441
-0.471507093438
0.24085267094
0.154452178706
1.27520973303
0.820606937847
-1.39165460894
-0.953736685573
-1.0395609284
-1.54950272466
0.978773675942
0.433405596173
0.365801053355
-0.461812535449
1.50311613453
0.246303788319
-1.24120549454
0.758276630345
1.42095929276
0.376948854908
1.88358743219
-2.47105680856
2.64596603896
-0.318569581628
0.13940807581
-1.20099531819
-0.738846099314
0.283113552187
0.105405973457
0.539662859366
-2.24802925609
0.100119559012
2.03664499928
-0.308009891142
-1.69286516427
0.665622763645
-4.10146852534
-1.09745495409
0.661347590641
0.7603065778
0.143756602011
0.316539503211
-0.0612815205989
-0.685477099079
0.273162009316
0.365407407145
-0.100599462959
-0.458000180791
-0.549396202003
1.16324826219
-2.17315414189
-1.43677406381
-0.655718922954
-1.01325762813
0.181632129084
0.542453379203
0.687479687424
1.18023057583
1.14045246495
-0.0104828444238
-0.147484826626
1.66318177993
2.39730536371
0.187497511455
1.80797529908
-0.708834001229
0.624848750945
0.475321878408
-0.336109785856
-1.51987101723
-0.678755532653
-0.424131719995
1.42023128955
0.796763379858
0.868803508574
1.54618056107
2.41283017075
0.607729714599
2.73861003008
-0.575872086245
-0.137814231628
1.17145961937
-0.147151171765
2.76414411835
-1.88134161871
-0.107467659175
1.34724073624
-3.41769729232
0.990864670206
-1.69466003532
-0.200111984586
0.0288188615735
0.583375785695
-2.21374716401
-0.817253730506
1.1551730257
0.345157915916
1.00768893523
-0.226453235026
-0.489363527485
0.5193734502
-1.00424059548
0.0220168007316
-0.856825289226
-1.16290762526
-0.0404098766459
3.45621700476
0.81210359703
0.212013618043
0.333363408237
1.58495129132
1.71347736724
0.424947447455
-0.72055760499
-0.339783318927
1.73584008671
-0.017765475891
-0.40610515812
0.776852073451
-0.931206819113
-0.472143756054
-2.32213005673
0.13628798334
-2.1392943169
1.38843617514
-0.512422606369
0.879611124873
0.729519650744
1.32452599751
1.97538644371
0.339590514345
-1.61286535673
0.188649378341
-0.7018808754
1.74993804374
-0.796330575735
1.50125555843
0.867440927654
-2.00014969588
-2.56083178921
0.434985057517
-2.07510879862
0.282298448576
-0.626896499265
-1.68568204752
0.602153855682
-1.10026015973
-0.21284452858
1.22898696508
0.235005450032
1.2360883898
1.09063987847
0.333201461043
0.0210225976912
-0.921109045965
2.03821600615
-0.122546721463
2.44647377976
-1.64302844018
-0.0857929432901
-1.5744468452
-0.152440081005
0.485090599785
2.58347319411
-2.16097912778
0.586125203344
-3.06087487431
1.65142621928
-0.350566996474
0.344047282941
0.940318518956
2.054038985
0.906020513305
1.74169373812
0.917715863388
-0.562860531617
-1.94457036975
-0.80727887761
-1.43035270132
-0.952441848908
-0.582429376587
-1.68898483706
-0.392126837576
1.29571658742
0.797120133039
0.647144964183
0.08449642964
-2.11604205688
3.87939842997
2.14021573166
-0.353192219252
-0.291184716369
-0.693116860009
-0.234464112272
-0.445038626983
1.00864545685
0.140017227825
-0.0660889338055
0.159090681796
-0.974674490328
-0.0819647765208
-0.119443612833
1.50383244907
1.1555320351
-1.16974520325
1.1042186399
2.20079239034
-1.24497965047
-0.383798724538
-1.51770602578
1.5788402458
-2.67527297288
0.697044954411
-0.7353504513
1.9208113994
-1.31461295135
0.613925804692
0.24942561045
1.74138714679
0.998766580834
1.84289315378
-0.843330818024
0.546437364887
0.35424918552
-0.485932228066
-0.844467536632
-0.966355825927
0.255858755415
2.10136960835
-0.0311831183307
0.78352174241
-0.0382494187593
1.67212234275
-2.78269923993
0.0546243265462
0.300008757512
-1.28396351454
0.533362446529
-0.249824103996
-0.222707161612
-0.59658218973
0.795916409958
-4.13632729757
1.24309688992
-0.55887934628
1.75543645931
-1.17693370305
-2.7666246701
-0.174443409882
-1.04334952822
-1.74486279428
-0.526557115549
0.653113051162
2.05025429208
-3.15206491678
-1.38699389577
-1.82164073014
-0.0643636144622
-2.05219017225
0.288490871432
-2.28903972923
0.501618886663
0.594975664886
-1.36173227118
-0.996459936819
0.70541373991
-0.703919689618
-1.76211614186
2.2476036252
-0.345950487764
-0.378585906344
0.887714244656
0.104553334165
-1.458212079
-0.11080178279
-0.626571637562
-0.452562985742
1.0936916505
-0.410543895593
-0.285454344598
-1.34924687049
0.60069917421
0.904992234208
0.478570712205
-1.05609945286
-1.28816251041
1.34301020436
-0.999322600729
0.333139089467
-0.668689798102
-0.413571509281
-1.72979674344
3.68046385503
-0.838562524893
1.38665164097
-2.88323710335
1.95655668818
-0.297351444338
-1.81799496034
-1.03349586237
-0.908604199305
-2.14822146638
0.726288904616
2.21335497466
-2.75624577251
-0.773517547447
1.91355008641
0.203793463488
-1.07196495184
-0.00720960529336
1.15878675818
-0.944171026921
0.0733670736491
0.721643827541
-0.767837905672
0.843166215926
-0.971879417997
2.49420281086
1.9352189777
0.324886843574
0.455437826209
-1.05008020385
0.976986993075
1.33788404554
1.43615351165
0.00608941136694
1.47212031052
0.41426641338
0.996342538438
-0.717559740615
-0.270972114424
0.960895907975
-2.57322618383
-0.410021475966
0.0565832679278
-0.493027896578
1.9446947199
0.935403936006
0.0471146240966
-0.399537745293
-0.442638342022
0.172327916863
0.0201744811054
-1.03755909631
-0.0826112240797
-0.237303103368
-0.210331998491
-0.0272660256738
-0.0940564227386
-0.518764871137
-0.804869734082
-1.53582783223
-0.887855599919
-0.917782470074
1.44544932877
-0.228286067725
1.6107498408
-0.674227582891
2.54303073034
-2.39036831744
-2.10837633945
-1.02990614426
0.960230273561
0.485506583089
-0.194934951115
0.96895779348
0.171273797211
-2.18854273929
-0.0461379678798
-1.86459580753
2.01875782665
1.52015394524
0.970007500158
1.72644261958
1.84640719949
-0.527587692737
-0.340600434872
-0.247486830575
-3.0801906486
0.531817568783
0.282699586763
-0.415775670454
0.237031022064
1.12339180149
-0.777047839222
-0.73695184011
-0.522659622593
-0.687047819417
3.16787943964
-1.42761416334
-1.05284040885
-1.11136608098
1.23281129609
-1.50152945587
-1.45264896517
0.607209394005
-2.17852047171
1.16650106268
3.58752846591
0.0494288366748
0.725461294512
-0.404060733245
0.0274321934752
-1.48689492355
0.704504028484
-1.38455101792
1.96054541267
1.33466157582
-0.634363300065
-0.64525054128
0.553224441713
0.0686661707458
0.332787657269
1.04946682223
0.787387991102
-0.364569327921
-2.44650239448
0.0140599481495
-0.387435657163
1.04753689979
-0.188732429428
2.63944698162
1.73934256514
1.08295571785
1.69758879897
-1.53392939537
-0.332543057251
1.69797222463
-1.74691711551
0.38356704211
-0.342296219824
-0.448504823852
-2.59705048496
1.88600922573
1.75115417691
1.33733657213
2.22901900388
-0.541147593348
0.376397954917
-1.06405177358
-2.49399637952
-0.0485945164817
0.170622030939
-2.96604764028
-4.16730359476
0.501091950783
-1.45166794934
-0.558533814641
1.76502638682
-0.405488282241
-3.24934903875
1.00704243368
-1.30620087766
2.81090902233
0.893378863368
0.2946159766
1.57067166329
-0.415528430752
-1.71236407336
-1.41350768287
-0.149189297767
-1.79158051003
-0.957092236578
3.0650290169
-2.65177495362
0.480191977257
-0.0288122061552
-0.08692898787
-1.76485743152
-0.35643799554
0.38053096706
-1.71890705787
0.822755470634
0.165564007283
1.53544383137
-0.114860383906
0.610635192481
-1.03641454407
0.26505793964
1.0966262442
-0.567766827886
-0.00279594273228
-0.866583156972
-1.03340375958
-0.453651190317
-0.290664250359
0.26161283555
0.766414383106
-0.705943187601
1.93720742699
-1.90858104481
0.551990631618
-1.44973123287
-2.0171390496
-0.818599762422
0.060897258587
-0.461289075345
-0.133348206005
2.4628252317
0.293014984587
0.293177202656
-0.080996364775
1.5488284069
0.176513794669
-1.73179969085
0.0742713188551
0.278714252527
-1.13274992133
1.31675396584
-1.55902768232
1.03098416746
0.805205843613
0.325168668973
-1.69469824941
-0.230655296349
1.13009976334
-0.620293626682
0.590479238125
-1.10387348288
1.11149963201
0.787927028198
-1.84891358619
1.14702077062
1.10856692875
-0.596611369148
0.764537883233
-0.575511225681
-0.384092342902
0.868575208539
0.346772970522
0.124220859763
2.46984026712
-1.49346636927
0.7928356381
-0.696765540736
-0.0590610895291
0.353837632829
-0.16104970228
0.284295170337
0.619834259005
-0.191158540696
-0.0646367843094
-1.11545593204
-0.154004164842
-1.49693625881
-0.116075429112
-0.109505155425
0.500057451711
2.11839158298
1.14564405935
2.12053156625
0.00194429792913
0.861576866335
0.747856753578
-0.25824099584
-2.29589043609
0.376380392528
-0.885480432656
-2.81271983787
2.20000960331
-0.102048541779
-1.20054293058
-0.285276351748
-1.12726074215
0.649551962377
-0.986052828063
0.43190700631
1.19493848065
2.1852133408
-0.750587235698
-0.098242344141
1.87542317784
-1.07536942441
-1.48024067461
0.320076424326
0.813484883518
2.1282837568
0.22685234206
-1.21271129016
1.1248009737
-1.71428441971
-0.0631762539361
0.576338007141
-0.373479096647
1.60255057808
-0.550502589445
-1.39493397899
-1.24324869429
2.27894078631
0.200206989458
-0.825930817945
0.530915020128
0.185539573316
-0.743014285562
-0.678679079285
0.730836774279
1.16643184846
0.301021496333
-2.06966674653
-1.02228631422
2.33317159913
-1.850776731
-1.50871792061
0.959743160192
-0.652552930384
0.622636084963
-1.47883420587
-0.465972575943
0.880574558277
-0.583988502772
0.898871701986
-1.21990675345
-1.58484558784
1.22683025018
-0.0211470031939
2.71934299816
0.943459756246
0.513689381651
1.30545346136
-3.23971915061
2.30879033996
0.745043183741
-1.569336782
3.81787661547
1.3903112964
0.758195120265
0.0751142086734
0.0312207526648
0.0406369435573
0.613529670557
-0.404034615214
0.659743182811
-0.680060622813
-1.52421651929
-1.77773745202
1.05721422744
0.0411581496571
0.690131172482
0.322595199059
0.358568514255
-1.12574611576
0.190563428242
1.54456442264
1.34622945373
-0.0215003758412
-0.738526333863
-1.17070614895
-0.313598982106
-0.37446217677
1.3237611414
-1.60187160907
0.0751128748633
-1.1401167818
1.76221557831
-1.63598206861
0.30856085702
0.18931718734
1.75177790359
0.64255058751
-0.0818825339763
-0.469090210573
0.0904923109057
0.816704227153
0.0651003062425
-1.43564266956
0.511974219071
-0.228561511319
-0.304594540937
-0.681703479906
1.52864013118
1.32128437924
0.532336604122
-0.140680191199
-0.654826199909
0.772970673174
0.957834064442
0.178150317018
-2.61354504185
1.72681395796
0.481759007507
0.821153165039
1.02125210326
2.11485727489
2.06453498658
1.8166939973
0.559821717818
1.20540141946
-1.29671954669
-1.18123745415
-0.295168892141
-0.295360673651
-0.527983989317
1.83105687018
-0.835121378556
0.360147684972
0.825942833595
1.32333493659
-0.720513766092
-0.365798410345
-1.60223763879
-0.527197554673
0.786289503915
-1.63550082473
0.384999711971
0.198897577343
0.275786811195
0.268736331034
0.736293812851
-0.218437037268
1.00164791252
2.30775753849
0.0151067329683
-1.93986670827
-2.34762811579
-0.00248807321837
-0.36714211871
-0.3861964724
-0.428132050501
-0.544608819632
-1.71005554929
1.0245928457
2.37933195925
-0.766592041612
-0.0729365894134
0.656945884853
0.287596974614
1.2001317391
-0.0695401973156
0.711243075499
1.02137074644
-1.39843622746
-0.154612216827
0.410097086369
-0.987144822324
-0.933051156061
-1.14406954483
0.276570467855
-1.79540336741
0.396554034674
-0.786688493038
-1.1783815207
-0.266048773955
-0.693702115171
0.74021752304
-1.45023529587
-1.55098342113
-0.0559648427422
-2.20676558531
-1.79221663243
0.148521434899
0.0502822240778
-0.298393170489
0.223460211604
-0.555373555501
0.489304307485
0.636703952494
-1.28720513687
-0.675972101825
2.16102455997
-1.01302912192
1.31271010406
2.9478559602
0.292181567355
1.51276733652
-0.754952033612
-1.14367177365
-0.860903898438
-0.925403755711
2.10086028804
-0.056722788715
0.263988607345
0.0767024325249
0.483238906809
-1.84981847878
-1.00375738265
0.996157632977
-0.215347549391
1.45679941024
-0.909899890838
1.99672912901
1.08439554833
-0.864210714834
1.00506796143
-0.902348049583
</DataArray>
<DataArray type="Float64" Name="Imag part" format="ascii">
-1.65108761166
1.07498443308
-2.10136091308
2.62900412424
2.39747761475
-8.46415105238e-16
-8.84888519112e-16
-9.61835346861e-16
-6.15574621991e-16
-8.84888519112e-16
-9.61835346861e-16
-5.77101208117e-16
-7.11758156677e-16
-6.73284742803e-16
-6.54048035865e-16
-5.57864501179e-16
-5.57864501179e-16
-5.77101208117e-16
-8.65651812175e-16
-8.92583201887e-16
-8.79117507031e-16
0.0
-0.455161841704
0.249290099897
-1.02772010369
1.91474239865
-0.135843120859
-0.846657839639
-1.63294209465
0.700004483368
-2.66747772717
0.328349679864
0.461497626142
-0.987377308664
3.28901969696
-0.472163517091
-2.06500722617
-1.35438069255
-1.9975994339
3.83475929228
2.67405178884
-0.371112919826
0.283289908185
-1.9242569352
-0.65894526686
-2.25687597272
0.482024579242
0.0861627476732
0.180633361871
-0.0899675598399
0.428682525354
1.36060562816
-1.66551717159
1.1008743086
-2.13515455265
-0.0221851093206
-0.394521684599
0.976705251669
0.0545791843882
-0.166951337521
-0.212826199046
0.1797120034
-0.125015439004
0.108295998315
-0.006374016653
1.91395478626
0.761454639165
-1.19577680871
0.946747833402
0.818865911542
-0.852481919627
-0.501532541648
0.238665355067
-0.902394197482
-0.609802528797
-4.31944955944
-0.603167051948
0.876002835571
-0.405219292803
-1.04263707256
-0.326813558571
-2.09373783644
0.102438973705
1.52767140977
-1.01836707339
-0.789987761677
-1.33706159541
1.61750820117
-1.23488662118
0.739949598963
-0.382983404774
0.439969026935
-1.22643293911
-0.10364696338
0.162302173318
-0.429628620947
-4.37558092231
0.609732839183
0.869850206432
-1.46951797384
0.143622044127
-0.222968149357
0.485456405527
0.300109556698
1.13140477534
-0.323111725117
-7.95117220072e-16
-7.69468277489e-16
-7.43819334906e-16
-7.18170392323e-16
-9.36186404278e-16
-9.10537461695e-16
-6.40057703547e-16
-6.64540785104e-16
-6.8902386666e-16
-7.13506948217e-16
-7.37990029773e-16
-7.62473111329e-16
-7.86956192886e-16
-8.11439274442e-16
-8.35922355999e-16
-8.60405437555e-16
-9.75917593709e-16
-9.75917593709e-16
-9.09279686138e-16
-9.37444179835e-16
-7.02139803208e-16
-6.9252144974e-16
-5.86719561585e-16
-5.57864501179e-16
-6.29656868839e-16
-6.01492375143e-16
-5.63018961268e-16
-5.63018961268e-16
-8.56033458706e-16
-8.88735860499e-16
0.0
-2.67459382194
1.34085205322
-1.15342409244
0.108567355783
-0.432852350628
-0.906190523583
0.444212589963
1.09124581893
0.540958391314
0.586511141632
1.38848228322
-3.0398129129
-1.08451383255
0.843890046655
0.871102035231
1.68373562788
-0.887869011218
-0.205122944314
2.14016772407
-0.925857252642
-2.21485277582
-0.665477461111
-2.32286203122
-0.86508420917
-0.421055892492
0.500736751136
-1.19147144901
3.86856509967
0.858644449703
-0.0764913627442
-0.300450686078
-0.025843876439
1.18311440027
0.470679295694
0.44535415508
-0.339334367436
0.546671786887
1.86600138139
0.597241219464
-2.21298731268
-0.272410006579
-1.09759539918
-1.24560939673
0.531833044625
0.190894087644
1.27324538043
2.61416773508
-1.00461186576
0.938945403507
-2.12549899619
0.443727477223
1.02825746149
-0.931729302649
0.700900491262
-1.32794154235
-1.00872768039
-0.0193600970565
-0.566785208912
1.88704111005
1.62630697844
-0.793793668086
0.247467071513
-0.668226656187
-0.830395090217
0.712788891576
1.56652575172
-0.792747580808
-0.0848041636488
-0.704297179356
-2.77868669863
-1.92215401879
-4.82300776732
-5.05506069188
1.34044842766
0.374959408376
-0.114262628656
-1.10370409164
-0.912150278109
0.844695245095
-0.166895839103
2.82906114279
0.0786792967655
-0.412696772113
0.554663149982
-0.934849839108
0.0319928787815
-1.32255095924
2.25171102792
0.233408674096
0.79571719759
0.305210669955
0.476915931654
0.526996023489
2.01129789531
-0.00356417486059
-0.981595207799
1.80851900402
4.1061760087
-0.757363913606
4.61111094504
-0.632813524312
-0.292984770441
-1.02801986938
0.180697327133
-1.00723913427
-2.51804544027
3.3029124294
1.47497042385
-1.23610794796
-0.273250084144
-1.16299406707
-0.277656600352
-1.88523693959
0.396114525999
0.902297787855
-1.83287501264
-0.0539532156737
2.77811108835
-0.992663316429
0.107573723427
-1.72091195994
1.97557692611
3.7354832937
0.918276294759
1.27525838329
0.390510406488
1.60531586053
-0.104946624544
0.905557446601
-1.01591688767
-1.31555299261
-0.0429815540482
0.468366084721
-0.256124412881
-1.00439956482
1.247606218
-0.575444065797
-0.373059410998
-1.07480212556
2.67433457857
2.59401314484
0.2541057339
-0.117372528711
0.891214570579
-1.30538687138
-1.01895409488
1.91071157572
-0.581485185396
-0.280008538473
0.319524311209
0.661301162063
-0.542649470233
0.133474936682
0.152298128608
-0.365931031844
-0.226400468101
0.0487349906515
1.98680829234
0.104420009816
-4.9348376811
-0.155270464793
-0.0611156915805
0.422684360967
0.558979972653
0.29771959245
0.857915073176
0.366149376494
-0.640585335738
-0.28614230656
-1.36717800614
-0.375013417923
-1.06661565289
0.683015896522
-0.0348055181099
0.354596165172
1.24635640911
1.93959156972
0.152752021307
1.46981730848
-0.425031990332
0.954979918129
2.68405635324
-1.94884321129
1.96097450091
0.737929186693
0.0543873515315
-0.209029949267
-0.343751104103
1.67319283178
-2.23705289821
0.213599870354
-1.49705755771
1.96143192566
-1.75062332012
-2.35551501597
1.94649264716
-1.63118530447
2.18666243317
2.92452404456
1.34987887458
0.970119126934
-1.52579823536
-0.620024248894
2.69004076432
-3.41101635524
-1.32062568598
0.939862643913
0.668107624394
0.239387049854
2.54653516883
3.86426252216
-0.0094894842605
2.19421037846
-0.793508066039
0.495586934374
-1.02516099321
1.79766467062
0.389927066665
2.9097423137
0.693705821271
1.32318157922
-0.149644995129
1.76465670941
-0.180283412681
0.148657764192
-0.835026201714
1.2533501818
0.0993387676721
-0.832532234262
-0.881809660898
-1.07155090957
-1.56012451654
-1.4150012061
0.224914952966
0.547434128143
-1.04273944309
0.847081634079
0.562841477947
-1.50455775199
-0.956573190457
0.1732849467
-0.803369238771
-1.84833544974
-2.44682326605
-0.188516133145