<VTKFile type="UnstructuredGrid" version="1.0" byte_order="LittleEndian" header_type="UInt64">
<UnstructuredGrid>
<Piece NumberOfPoints="958" NumberOfCells="1780">
<Points>
<DataArray NumberOfComponents="3" type="Float64">
2.0 1.0 0.0 
1.0 1.8 0.0 
0.0 1.0 0.0 
1.0 0.2 0.0 
0.7 1.1 0.0 
1.1 1.1 0.0 
1.2 1.1 0.0 
1.4 1.1 0.0 
0.7 0.9 0.0 
1.4 0.9 0.0 
1.5 1.0 0.0 
0.5 1.0 0.0 
0.65 1.2 0.0 
0.6 1.15 0.0 
0.6 1.1 0.0 
0.65 0.8 0.0 
0.6 0.85 0.0 
0.6 0.9 0.0 
1.05 1.2 0.0 
1.15 1.17 0.0 
1.1 1.185 0.0 
1.99675968933 1.06434965354 0.0 
1.98710604629 1.128054122 0.0 
1.97123406146 1.19050148196 0.0 
1.94944745438 1.25114079731 0.0 
1.92213186649 1.30950057401 0.0 
1.8897254802 1.36519677535 0.0 
1.85269162732 1.4179316604 0.0 
1.81149626591 1.46748608392 0.0 
1.7665915679 1.5137080061 0.0 
1.71840510877 1.55649997646 0.0 
1.66733421564 1.59580670403 0.0 
1.61374382978 1.63160418563 0.0 
1.55796667225 1.66389068626 0.0 
1.50030533245 1.69267923858 0.0 
1.44103507004 1.71799189611 0.0 
1.38040705039 1.73985532684 0.0 
1.3186517997 1.75829747431 0.0 
1.25598252981 1.77334512634 0.0 
1.19259837055 1.78502213682 0.0 
1.12868743671 1.79334816312 0.0 
1.06442974759 1.79833779622 0.0 
0.935570252407 1.79833779622 0.0 
0.871312563294 1.79334816312 0.0 
0.807401629457 1.78502213682 0.0 
0.744017470193 1.77334512634 0.0 
0.681348200302 1.75829747431 0.0 
0.6195929496 1.73985532683 0.0 
0.558964929955 1.71799189611 0.0 
0.49969466754 1.69267923858 0.0 
0.442033327743 1.66389068626 0.0 
0.386256170218 1.63160418562 0.0 
0.332665784354 1.59580670403 0.0 
0.281594891222 1.55649997646 0.0 
0.233408432094 1.5137080061 0.0 
0.188503734085 1.46748608392 0.0 
0.147308372675 1.4179316604 0.0 
0.110274519798 1.36519677535 0.0 
0.0778681335091 1.30950057401 0.0 
0.0505525456175 1.25114079731 0.0 
0.0287659385388 1.19050148196 0.0 
0.012893953709 1.128054122 0.0 
0.003240310674 1.06434965354 0.0 
0.00324031067404 0.935650346463 0.0 
0.0128939537092 0.871945878002 0.0 
0.0287659385392 0.809498518039 0.0 
0.0505525456181 0.748859202686 0.0 
0.07786813351 0.690499425987 0.0 
0.1102745198 0.634803224652 0.0 
0.147308372677 0.582068339602 0.0 
0.188503734087 0.532513916077 0.0 
0.233408432097 0.486291993899 0.0 
0.281594891225 0.443500023541 0.0 
0.332665784358 0.404193295971 0.0 
0.386256170223 0.368395814372 0.0 
0.442033327749 0.336109313741 0.0 
0.499694667547 0.307320761417 0.0 
0.558964929964 0.28200810389 0.0 
0.61959294961 0.260144673163 0.0 
0.681348200297 0.241702525687 0.0 
0.744017470189 0.226654873658 0.0 
0.807401629454 0.214977863176 0.0 
0.871312563292 0.20665183688 0.0 
0.935570252406 0.201662203776 0.0 
1.06442974759 0.201662203776 0.0 
1.12868743671 0.20665183688 0.0 
1.19259837054 0.214977863175 0.0 
1.25598252981 0.226654873658 0.0 
1.3186517997 0.241702525687 0.0 
1.38040705039 0.260144673163 0.0 
1.44103507003 0.28200810389 0.0 
1.50030533245 0.307320761416 0.0 
1.55796667225 0.33610931374 0.0 
1.61374382977 0.36839581437 0.0 
1.66733421564 0.404193295969 0.0 
1.71840510877 0.443500023538 0.0 
1.7665915679 0.486291993897 0.0 
1.81149626591 0.532513916074 0.0 
1.85269162732 0.5820683396 0.0 
1.8897254802 0.63480322465 0.0 
1.92213186649 0.690499425985 0.0 
1.94944745438 0.748859202685 0.0 
1.97123406146 0.809498518038 0.0 
1.98710604629 0.871945878001 0.0 
1.99675968933 0.935650346463 0.0 
1.03333333333 1.1 0.0 
0.966666666667 1.1 0.0 
0.900000000001 1.1 0.0 
0.833333333334 1.1 0.0 
0.766666666667 1.1 0.0 
1.33333333333 1.1 0.0 
1.26666666667 1.1 0.0 
0.763636363636 0.9 0.0 
0.827272727272 0.9 0.0 
0.890909090909 0.9 0.0 
0.954545454545 0.9 0.0 
1.01818181818 0.9 0.0 
1.08181818182 0.9 0.0 
1.14545454545 0.9 0.0 
1.20909090909 0.9 0.0 
1.27272727273 0.9 0.0 
1.33636363636 0.9 0.0 
1.48660254038 1.05 0.0 
1.45 1.08660254038 0.0 
1.45 0.913397459622 0.0 
1.48660254038 0.95 0.0 
0.675 1.15 0.0 
0.625 1.175 0.0 
0.675 0.85 0.0 
0.625 0.825 0.0 
0.55 1.08660254038 0.0 
0.513397459622 1.05 0.0 
0.513397459622 0.95 0.0 
0.55 0.913397459622 0.0 
1.075 1.15 0.0 
1.175 1.135 0.0 
0.856654190803 1.46085887936 0.0 
0.908868306323 0.550180709946 0.0 
1.21273813367 1.46996044557 0.0 
0.430116348782 1.34488365122 0.0 
0.430116348782 0.655116348782 0.0 
1.22382203998 0.564691770018 0.0 
1.49246889226 1.35917654483 0.0 
1.49655910943 0.639636497688 0.0 
0.64886687676 0.556293501929 0.0 
0.638596140586 1.41751991771 0.0 
0.280864614173 1.13902010263 0.0 
0.280869912959 0.8609743343 0.0 
1.73666975204 1.09021038818 0.0 
1.69121308975 0.807538901795 0.0 
1.02250248409 1.58835606429 0.0 
1.29519808664 1.29293700591 0.0 
1.03046957739 1.3888514726 0.0 
0.815029813373 1.27796255107 0.0 
1.690086742 1.29110000892 0.0 
1.065888551 0.412958090784 0.0 
0.808738933503 0.724462410026 0.0 
1.06060811355 0.694087699937 0.0 
1.39373271353 1.52977537718 0.0 
0.545023108551 1.27997689145 0.0 
0.543439019099 0.721476629956 0.0 
0.727636910916 1.57766371085 0.0 
1.39157561257 0.469788417814 0.0 
0.427161013003 1.18126870315 0.0 
0.762249366457 0.415460312845 0.0 
0.427161013003 0.818731296851 0.0 
0.490615953542 1.50085334351 0.0 
1.81378156774 0.936203036118 0.0 
1.33076376899 0.714655109147 0.0 
0.493685826933 0.498677052194 0.0 
0.180896017439 0.99999534807 0.0 
1.58090237648 1.18032139312 0.0 
0.267130194943 1.30512264658 0.0 
0.265004460454 0.700254638264 0.0 
1.66904299388 0.630219753909 0.0 
0.87140022823 1.61912698253 0.0 
1.65237847991 0.956329793345 0.0 
0.343194309664 1.0 0.0 
1.54123377406 0.791004527643 0.0 
1.18168192693 1.62614977736 0.0 
1.16412477732 1.31773565832 0.0 
0.656013207263 0.679433207619 0.0 
1.24573514152 0.400120460568 0.0 
1.44154298652 1.23243486438 0.0 
0.695934673571 1.3123473463 0.0 
0.925648088664 0.358008854864 0.0 
1.64128972417 1.42739745158 0.0 
0.943907028071 1.28723216922 0.0 
0.615786505298 0.410914954202 0.0 
1.53505362686 0.500858300997 0.0 
1.81903782133 1.22072555655 0.0 
1.18843379897 0.748399020953 0.0 
0.367238171051 1.45634468909 0.0 
0.532728749488 0.605466578654 0.0 
0.327091014398 0.576147086551 0.0 
0.525001989753 1.39459908758 0.0 
1.33087247247 1.41778702532 0.0 
0.946705415179 0.762992344339 0.0 
1.52823708853 1.52190490773 0.0 
0.758627275904 0.605810799282 0.0 
0.73795001127 1.41133944357 0.0 
0.147953433358 1.13928783991 0.0 
0.147956163101 0.860711787058 0.0 
1.87276146476 1.05151455668 0.0 
1.82389505288 0.797717406951 0.0 
0.587918710093 1.5828762564 0.0 
1.60407245393 1.06137131263 0.0 
1.01974055141 0.562418334501 0.0 
1.31037569453 1.62698823397 0.0 
1.08624804944 1.48585406331 0.0 
0.516731788468 1.19353819307 0.0 
0.508797627657 0.797120859282 0.0 
0.958685453322 1.48804268025 0.0 
1.24924656928 1.20643025713 0.0 
1.38014275226 0.596341120218 0.0 
1.42821916193 0.783757010894 0.0 
0.724691627643 0.744853231417 0.0 
0.724164552481 1.23636665333 0.0 
0.373667140017 1.26263545247 0.0 
0.373915662532 0.737519368368 0.0 
1.79219667787 0.684813703232 0.0 
0.416029550049 1.07717938674 0.0 
0.416030314599 0.9228199333 0.0 
0.970422603827 1.69233433659 0.0 
1.07772079425 1.68707603868 0.0 
1.58202523384 1.2841763185 0.0 
1.56194207051 0.880978162695 0.0 
0.930181449554 1.39374088836 0.0 
1.15649719319 0.319842389495 0.0 
0.170422896883 1.25435597497 0.0 
0.169816532221 0.757804453405 0.0 
0.63265719944 1.26688063034 0.0 
1.68554737643 1.18420167587 0.0 
0.463355861068 1.25766794543 0.0 
1.06773183973 1.29944210753 0.0 
0.462612873028 0.742153161144 0.0 
1.40160676126 1.32771367018 0.0 
1.02116405521 0.304061172479 0.0 
0.949632586331 0.658818356919 0.0 
1.62245957622 0.723979460388 0.0 
0.773920321797 1.66469816442 0.0 
0.881073246858 1.20094139252 0.0 
1.24562125302 1.3736206901 0.0 
0.96832734501 0.460721249933 0.0 
1.13608880142 1.40484872359 0.0 
1.73523430045 1.39000133318 0.0 
0.593016192125 0.77443628783 0.0 
1.17320742453 0.46848957407 0.0 
1.35903381339 0.3576450983 0.0 
1.29480700937 1.52903822605 0.0 
0.386151460553 0.489110173469 0.0 
0.277593438529 1.41213347244 0.0 
0.701729270953 1.48638068165 0.0 
1.1637496332 0.65421247591 0.0 
1.34613025787 1.20175522741 0.0 
1.65560547519 0.523947022131 0.0 
0.742724137372 0.511034475993 0.0 
0.80056926806 1.54339092613 0.0 
1.04142555279 0.79914073448 0.0 
0.784177348189 0.805680092648 0.0 
1.42777450638 1.43513732633 0.0 
0.839270332151 1.36998267793 0.0 
1.74266455709 0.992798495432 0.0 
1.71893631533 0.895224659819 0.0 
1.48557923813 0.41247754886 0.0 
0.822701599997 0.312583359104 0.0 
0.583274558293 1.49121534317 0.0 
0.264900800766 1.04944227944 0.0 
0.26491511571 0.950549880934 0.0 
0.688375644496 0.341632822741 0.0 
0.578118575255 1.22223701346 0.0 
1.29263590539 0.485906032095 0.0 
0.593946219151 1.34160087247 0.0 
1.80229164369 1.31414320665 0.0 
1.46866995677 1.59833095401 0.0 
1.48619418382 1.15939916987 0.0 
0.861256473202 0.456666601196 0.0 
1.46051374805 0.548908357635 0.0 
0.480891949784 1.12450391662 0.0 
0.481573702817 0.876215849769 0.0 
0.517479505383 0.403651717007 0.0 
0.452074609803 1.42578943675 0.0 
0.456338670162 0.576358393139 0.0 
1.58023368014 0.594628158778 0.0 
0.587283286485 0.658234933806 0.0 
1.27664601305 0.800580521528 0.0 
0.344269130975 1.35574317439 0.0 
0.889992696233 1.53553385984 0.0 
1.88358558832 1.14932012821 0.0 
1.42056715063 0.686127386776 0.0 
1.90611964335 0.967741263794 0.0 
1.89105840727 0.86828338329 0.0 
0.654652477658 1.65821642972 0.0 
0.407925929411 1.5418768693 0.0 
1.1646940092 1.54158972576 0.0 
0.344225463196 0.654253785879 0.0 
0.847324045796 0.632160242469 0.0 
1.25463456643 0.658023496695 0.0 
0.0972690147477 1.05011143214 0.0 
0.0972693380593 0.949888923307 0.0 
0.243597838867 0.604459848955 0.0 
0.650494451348 0.741406719854 0.0 
0.583115128559 0.500670562251 0.0 
0.96730771105 1.20477239663 0.0 
0.495028019871 1.59092518135 0.0 
0.354699444592 1.14840745243 0.0 
0.354701186335 0.85158752003 0.0 
1.12695388409 0.561536693768 0.0 
0.28890146604 1.22538320376 0.0 
0.288878995396 0.774622276003 0.0 
1.57352937557 0.968097812157 0.0 
0.422222330921 1.0 0.0 
[...]
<PointData Scalars="solution">
<DataArray type="Float64" Name="Real part" format="ascii">
0.633800968923
-0.221627231984
1.04075012701
4.84327230943
4.6409300541
-0.309016994375
0.309016994375
1.0
0.809016994375
0.309016994375
1.0
1.0
-0.587785252292
4.28626379702e-16
0.309016994375
0.951056516295
0.951056516295
1.0
-5.51091059616e-16
0.425779291565
0.218143241397
0.0
1.61848978335
0.183644398008
2.33657411389
-2.33734818098
0.734347042594
-0.573066203029
1.4882904183
0.353105377669
-1.10788015662
-2.22989416739
-0.896869296599
0.655456442482
-1.15368454853
1.98382924043
0.288345111308
1.27945948165
-0.0318721934526
-2.52309076427
0.195848111442
-2.31108418552
2.94934643194
1.49821668936
-0.75750973039
-0.463898274731
-0.844524126869
0.977523716925
0.837040590199
-0.382225017475
1.18776249388
-0.27756691798
0.291954565419
-1.04065896783
-0.840992634184
-1.4174275068
-3.08977102129
0.0891074055714
-2.57397929263
1.13611885878
0.30893942319
-0.549357165824
0.386005371477
0.218498830415
0.395494380833
0.792571214377
-0.285371439604
-1.27343942697
-1.26021439256
-1.61650255165
-0.56845466189
0.333141911422
-2.51913195335
2.14703509301
-1.92839355174
0.412269916951
0.397954034797
-0.282141517511
-0.780269914344
0.586520180844
0.405139441483
-1.51324734738
0.617090428992
1.76429972861
-0.221087177117
-1.4972812391
-1.24731508903
1.24753454818
0.399084287502
0.713251267224
-0.396290748793
0.451203711429
-2.8060835077
-2.81711016573
-0.108901237301
0.145545956982
-0.499934515149
-0.564560018441
-0.316888244781
0.579395800174
0.653600485435
0.316030258193
-0.899638941371
1.49933054167
-0.639440992916
-0.0796821077116
-0.913545457642
-1.0
-0.913545457644
-0.66913060636
0.913545457644
0.669130606362
0.51639746164
0.142314838276
-0.25421833419
-0.610647879632
-0.870746077117
-0.993481735348
-0.959492973616
-0.774141610642
-0.466667323228
-0.08557500848
0.973670830372
0.973670830372
0.653725557386
0.92170694001
-0.453990499739
-0.309016994376
0.987688340596
0.951056516295
0.653725557385
0.92170694001
0.973670830372
0.973670830372
-0.15643446504
0.368124552685
0.0
-0.383367251757
0.486956197529
-1.95763406002
0.0322648443932
0.811737635224
0.447094527686
0.354496620572
-0.174736166358
0.0209740568793
-0.22436044524
0.449482230036
1.28652673973
1.17595004608
-0.153169997923
-1.53249326509
-1.84128302394
-1.10576604698
0.23643791453
1.82469960188
-1.22599370674
-1.64025421258
-0.565469665857
-0.0294997377064
0.988504630474
-0.439858442818
-0.0363264561085
-0.510573958754
-0.0345191935993
-0.779779361823
-0.92985308576
0.0586150444315
-0.301823551707
-0.661155794387
0.203161892572
1.00645268161
2.91468398195
0.908672596764
1.17194039268
-3.38438436648
0.913144155165
0.335292972827
-0.311059397785
0.756496647432
1.14270677942
0.705187214887
1.1793068791
0.190714300067
-2.52888512906
-0.208681640662
1.58321474331
-0.136328363419
-0.42088455156
-2.10868785144
0.534522316379
-0.051655879044
-1.43925219885
0.234843792564
-1.76510592185
0.444491979377
-3.30450253072
-2.08855803868
-0.827503825085
0.235088779514
-1.55548620746
-0.702911578913
0.397659121546
0.25968232987
0.1964592543
0.624226493695
0.896123893084
-0.987858882606
2.81112410624
3.07969667183
3.59702285554
1.26413165045
-1.17860592186
0.0586976519944
1.22207170657
-0.150903137714
0.586689150302
0.425892936073
-1.23815786627
-0.255340668446
0.224649155891
0.223616719806
1.82499400758
0.290011298427
-0.756959695422
1.12494728427
0.545648577033
-0.197169306982
0.487204046
1.00959098231
-0.615665904249
0.4914508264
-0.296942697904
-1.52126875396
-4.29000233048
-2.12585013945
-3.42401867667
-0.837854199085
-2.22963782885
0.238042475981
-1.20622189871
-0.364014313782
1.63037774691
4.79275184808
-0.677764156912
0.727484201908
-0.742890533199
0.892321484417
-0.119053228531
0.483731127303
-1.66559967451
-2.10050316127
1.3561022187
-1.60195914272
-1.07033794991
-1.29630758914
0.0184822884092
-1.34905106239
2.57475523589
2.74790810696
-1.54381458018
-1.86352537384
-0.651729075385
-0.0560790975199
-2.1787300692
1.03335175041
1.42712010842
-0.29557451775
1.23461417618
-0.350028762209
-0.387699255271
0.599021318959
-0.469482772142
-0.166722812315
0.930877918583
1.15323000735
1.88507578258
0.424320547115
-0.171073699114
0.296214083538
-1.54609849922
0.346810889971
-0.693268370723
0.465869866443
-0.891902179907
-0.0965641874107
0.591008961743
1.60587220776
0.746740363674
0.468667224261
0.851050548714
-0.0412044798439
-0.754326375054
0.838765086026
-1.52861151774
1.07225666682
-3.42197212862
0.783954554201
-0.80622763324
0.515387120384
-0.781543391466
-0.191117559252
-0.100049833691
-0.983475919004
0.760925579284
0.564574694192
-0.31541459863
0.626234403298
0.430195389526
0.112089292411
-1.12271756752
-1.32107865839
0.861049793043
1.90819567587
1.50005145063
0.947364588847
-0.269435364962
0.430055030921
-0.564026250674
-0.22905751449
3.05912296849
1.00545332873
-0.975324532351
3.07683243852
2.90095320511
2.01972668673
0.423637722677
-0.503502452329
1.43188449727
-2.84987561053
1.62849536823
-0.456031704466
-0.374188260049
-0.563658506857
-0.46408861137
-1.28061151618
-0.637269821778
-0.0425840540495
0.237386481429
-0.673998432047
0.278755636228
0.764226196273
-2.97624048412
0.756877165452
-1.41143419818
-2.23492168038
-2.98273790009
0.988204238084
-1.51127217068
-0.588028015294
0.989989476841
-0.55261830261
1.48380259194
0.531402658801
0.594536780736
-0.00116199784642
-0.143642101696
-1.30835932338
0.836133777965
0.419727607413
-2.07280917635
0.674521051547
-2.3087133499
-1.39544216864
-1.50930888609
0.379247268948
0.81711185102
0.0704288517533
2.38818683374
-0.599942559491
-0.31970169439
-1.08851240085
-1.04011009347
0.819645478838
-0.761585248436
-0.448692108494
-0.803046538656
-1.29181345099
-0.491019437213
-0.188451024192
-3.62348488912
0.776661738182
0.585218447235
0.157493853197
3.11680685683
1.74484031118
0.704441388712
-0.301035244925
-0.11562587219
1.13960372022
0.116669664122
-1.12207601605
-1.91753771638
1.39232125306
-1.00106931592
1.25535888384
-2.01952778225
0.252132681061
1.07417982665
2.31880929022
0.245701522757
-0.952193855185
0.0666191144145
-0.576957570719
-0.807389953474
1.15953041022
4.43417171886
0.269963309432
0.714429062039
1.29174601203
1.49921688032
-0.440547408261
-2.13561760765
-0.837689568956
2.20455965104
-0.493542661423
1.64050641585
-0.306935480675
-0.0302932366925
0.672193064203
-0.443916785755
2.53952188079
1.67262485357
-3.01598722994
1.65333338626
-0.154920055573
-0.546097099435
-0.00352216996598
3.89980786859
-1.6027400893
1.6224462419
-0.58723709902
1.22365527868
-1.73642542114
1.81810594185
2.24219488078
0.514206248235
1.09811264949
-0.527158802036
-1.61786841743
-0.889135994507
0.881251949926
-2.41543450313
1.34902774326
4.01140168367
-1.13622546123
0.0205066425459
1.0660529096
2.9505324361
0.146186431281
0.385482765828
-1.59161864853
0.400990621338
-0.160283561017
2.53558178445
-0.450808482968
-3.12710266027
1.83795882619
0.935811159373
0.400601507902
0.0352993273837
-3.63514175741
-0.597958699665
1.01537872374
-0.455797724905
0.470805027259
0.690908407507
-0.696929997908
-1.36540813374
1.59718062553
-0.0900417902693
0.236949159057
-0.508037767239
0.184016283208
-0.73789454876
0.108007890178
0.23746995896
1.43223883988
-0.935141177332
2.72015378975
-1.47036872845
-1.59526913606
1.31116604281
0.762428035123
-1.52897162777
2.54892839281
1.22896280135
-1.27489343228
0.0830498816544
-1.66422111231
-0.51094043303
-2.07678683347
-2.85427492278
-0.626695062993
-0.555537869925
-4.39417701628
1.87298056036
-0.993987345392
-0.625618712583
0.35227993135
3.38589434394
-0.711885557123
-2.03059580126
0.910595894849
3.15835034359
-1.18555184618
-0.162972112598
0.586781792355
1.60166126957
1.40837917937
-0.0534492098473
-3.48167221603
0.736473414884
-0.70440242652
0.842581648217
0.535800427441
0.331092021173
-0.365065049749
1.4523682834
-0.623246048791
0.999528116675
0.588340267822
-0.916915840733
0.0620271020796
-0.27917285808
0.151308452671
0.0520560863771
0.432275150623
-1.01518669436
0.074812162428
-1.23319392143
-0.182706878561
-1.57271070589
1.30996819734
-0.392137868541
0.0321770748016
0.189246623574
0.271070068082
-0.264283742015
-1.94394482225
0.196915547055
1.11489826963
1.70634304266
1.48913980983
-1.36377128777
-0.674152361714
0.0295450414238
-1.87392214568
-1.25532377134
0.513888913113
-2.080840088
-2.24334196555
2.35520908764
-0.735657073371
-0.220468625233
-0.557027212471
0.590127562014
-0.0958207369165
-0.0180548545037
-0.124858759843
-0.299969505229
1.27433999718
-0.253537601615
1.54470232685
2.80470905751
1.1164241002
-1.65552987272
0.637021963979
1.10897872062
-0.504668914118
-0.0774943018502
-0.0132287403768
-1.33150451954
1.47200432478
-2.55075482086
-0.539085875244
0.675945563196
-0.266264525412
-1.59694214414
1.53492162334
0.0922286844149
-0.507446184127
1.48127379739
1.59874910175
0.667676518471
1.94420563082
-0.944866475529
-0.103592808339
-1.45509255576
0.242526343331
1.45870655385
-1.45401193946
-0.456348731445
-0.721898873602
0.150748763655
-1.83750963626
-0.141324729818
0.481015350717
1.50709642395
-2.57706327931
0.243644718433
-1.35918717017
-2.26413042339
-0.380842031625
-1.13947516106
-2.24989954495
2.54675158162
-1.14468040882
-2.63524070615
1.15983670357
0.661624901972
0.392215995603
0.295484720551
1.07289407955
0.643887771309
0.148009536194
-0.400244488372
-0.487336306257
-2.1206482191
-0.493286087229
1.07636503927
0.844459316031
-1.69082791397
2.00680910568
0.896352281004
-0.847861754997
-1.01613990086
-1.91343254961
0.0322219629886
1.61184081312
-0.417845351991
-0.137211971895
4.20461662369
0.970622140576
-0.45191385738
0.0832694331445
1.95962036473
-1.00270282841
0.537789991661
-0.171761202171
-2.42029444551
-0.23307406043
-0.863594153506
2.09694406859
-1.06613061577
0.344922172223
-0.678256363136
-1.76073754417
-0.516835272989
-0.0777088497675
-3.04542517484
1.47970914666
0.380494230684
0.628573119758
1.5596912556
0.289934390561
1.22885061261
0.924950267944
-0.479103670605
1.63007423659
0.850815083131
-1.67096740878
-1.58056641283
-1.57069697096
2.79585309922
-1.31802069803
-0.238589904322
0.876505379976
-1.45398641853
-1.24941893027
-1.31751238824
0.57430082283
-1.10491687925
-0.59216947315
0.518628969792
0.132496244386
1.79257810127
0.855756708516
0.637831657458
1.38198278137
0.28566054942
-0.263417838733
-1.12687159512
0.380646838908
0.234379925407
0.0474380826127
0.526594721999
0.500389099398
-1.46577358475
-2.3015065473
0.35090810611
1.0965059338
0.220933984084
2.23192206101
2.43296358574
-1.56103867508
-0.714613247984
0.478952862663
0.156140788512
-1.34934099083
0.0507381453086
-0.347362431179
-1.30677316404
-0.863599571352
-0.328546069754
-1.25340835377
0.550848886119
0.655542001119
0.945231654443
0.276827089697
1.78650668852
-0.34804115176
-0.98545106225
-1.00842638903
-0.339782760444
0.715059619294
0.635026336781
-1.42669451986
-0.0758655235224
0.842664055457
-1.17232602389
0.0380711901718
-0.460092022605
1.08981966921
-1.07525054069
0.386282501038
-1.93281940851
-2.0535761173
-0.88115112444
-1.17136104568
-0.287378937737
1.48298821954
2.16684731787
-0.914198645366
-1.26658415271
0.66090054927
-0.145958121859
1.10141641096
0.91316493542
0.880375054959
0.986344468357
-1.49841015679
-0.482382751275
1.16661954843
1.91081273626
2.46461706733
2.89671419303
1.08785998139
-0.548409533461
-1.06331973775
-1.84186905868
-0.22422786328
0.885040382274
1.23003665392
0.29969594604
-0.0511030160621
0.0750659026334
0.20444295404
-1.36913713381
0.0867716952018
0.711274603474
-0.508322333063
-1.804054545
-0.403608694927
-0.0281398675432
-0.0824219148311
-0.461815940319
-0.277582440745
-0.404591788671
0.105297218968
-1.02868891076
-0.0859593169971
-0.450204970717
0.960681307353
3.16233044105
3.18903864685
0.568137912157
3.30540910166
1.09868355921
-0.909519843839
0.236841799932
0.562318600956
-0.780676035707
-1.86884864231
-1.09179250821
0.48039131918
1.4975158242
-0.156403516106
-0.686340498527
-0.706085861475
-0.232220055887
1.55574527364
-1.15807350117
1.06814160348
0.571650437131
-0.899723437716
0.465492681806
-0.558672459901
-0.0957075511197
0.346364822834
0.329172916626
-0.210171639519
-0.151110220909
0.444178968378
0.181118021615
1.54154269469
1.29681607674
-1.60022172064
-0.288528656769
0.995075086252
0.0642531161249
1.25041805461
-1.19105845779
-0.206393160325
1.32431873174
-1.29994992257
-0.95793323395
-0.679790595055
-0.48162951332
0.756152286398
1.61461832362
-0.113792754762
0.223656816958
-1.67279899143
0.818826567578
0.718095499935
0.9344993524
-2.84062281356
1.63049798299
0.0134844512055
1.274416409
-2.18118961877
-0.0705056954282
-0.522616882068
0.375658716923
-0.172541535277
-0.864383552205
-1.95630823327
-1.48501423877
-0.105436987503
1.87142269302
2.39151116698
0.914374722706
0.625471118866
-0.752470198239
-0.479179492988
0.775002932141
0.63934633086
0.249661621889
-1.84539385247
-1.06960632791
-0.104206082851
-0.316748742932
-0.132791906161
-2.74250719631
-0.216283888743
-0.758779887692
0.261923199097
-0.472492049976
-0.0394631120704
-1.21023461003
0.765434820335
2.86586830717
0.279044962459
0.100844494828
0.723795110139
-1.29273350352
0.402562590168
0.714626055768
0.103439630544
0.268959470494
0.512403973504
-0.95303110451
-0.804371108652
2.50187406229
-0.976576736487
0.400919079229
-0.0713539475856
0.10250632609
-0.195727886215
-0.00394224476017
0.26208345813
1.3012807446
-2.13470963979
-0.559524999082
-0.0106415526945
-0.0457466282224
1.87982964056
-1.4465623665
0.239755718455
1.34342239508
-0.314881779895
0.943534267793
0.805651864595
-0.120431225868
0.887401228806
-0.576060538721
-0.042480920581
-0.319776987618
0.430864891847
2.0666589883
0.547760874145
-2.52851996599
-0.417256666958
-2.38453858319
-0.0834797088564
0.0435532681985
0.264220175425
0.672886418527
0.263704984706
0.317508647423
-0.480055778193
0.256749534332
1.17230901342
1.24917778305
-0.389018516359
0.340389098151
-0.831542300839
0.435197048173
0.948706108418
0.407071581356
1.77016102257
3.579254674
-0.471175489188
-0.459236859304
0.434510719048
-0.029208281693
0.334789873557
0.568301106791
-0.573052417758
0.716395996553
-0.347748511367
0.581448692337
-0.170810650211
-1.33934080474
1.34691946137
-0.139133443255
-2.50052378693
-0.0810813145268
1.6724235455
1.47203904791
0.491427825901
-1.10506753182
0.737488732548
-2.04666778759
-0.478944628703
-0.0274897132284
-0.318702946058
1.22034126661
-0.471319705167
0.293762669339
-0.319898712369
0.728458169917
0.172399611961
-0.41832427076
-0.332569534932
1.42428620713
-0.573836012802
</DataArray>
<DataArray type="Float64" Name="Imag part" format="ascii">
0.316976887326
1.66202902059
1.43925485474
-2.68824881878
-4.74411386624
-0.951056516295
-0.951056516295
-6.12323399574e-16
0.587785252292
-0.951056516295
-6.12323399574e-16
-3.67394039744e-16
0.809016994375
1.0
0.951056516295
-0.309016994375
-0.309016994375
-3.67394039744e-16
-1.0
-0.904827052466
-0.975916761939
0.0
0.290019551989
-1.79710433325
-0.0224653118247
1.95448918983
0.307781030201
1.89500390504
1.02520158913
-1.26400938458
3.93119390104
-0.108731119765
0.74441074389
0.00497107946526
-1.05607565405
-1.33377804037
1.09087822214
-0.859045635338
2.32282536419
-3.53950663408
0.794597869523
-0.735175265638
-3.6110135754
0.000654421463109
1.20855775378
1.55994537311
3.78328023734
-3.49353135365
0.246678376374
-0.413038999616
-2.97569640689
-3.11526965465
0.268908297361
-1.58268828784
1.73033280164
-0.273268500714
-1.52673112873
-2.48338753342
-2.59030201326
0.498703240518
0.403449750764
-0.19360004592
1.55265869317
-1.3538780655
0.368911108259
-0.836579900916
-1.32394590108
3.12818850086
0.0392397650328
0.11873196424
1.48216544016
2.76622162246
-1.13994588483
1.19417499646
-3.35630141321
2.80674704661
-1.14985109433
-1.48826906467
-0.927714636573
0.866813167232
0.751736891
0.812897371171
0.189648751488
-1.07450699808
1.87163796103
0.889060977608
-1.32738531213
-3.76390105177
4.53840944292
-1.81821826052
0.576715491771
-0.64619207215
2.96860125504
1.41441442565
-0.588383411513
0.93148059777
5.87539362879
0.279480948196
-0.194319293888
1.36984089472
0.674925651072
0.00486794979654
-0.591520039502
0.273340883624
0.683005585668
0.632009334512
-0.406736643078
-3.40300984557e-12
0.406736643074
0.743144825477
-0.406736643072
-0.743144825474
0.856349030251
0.989821441881
0.967146854703
0.791902245925
0.491732924651
0.113991409896
-0.281732556838
-0.633012453806
-0.884432930996
-0.996331730863
0.227958579752
0.227958579753
-0.756731719714
-0.387886989646
0.891006524189
0.951056516295
0.156434465037
-0.309016994375
0.756731719714
0.387886989647
-0.227958579752
-0.227958579752
-0.987688340595
-0.929776485888
0.0
4.33721286541
1.27007512914
2.75606249193
0.0506634636425
2.38130520799
-1.67089160902
-2.48470481247
-1.53016839087
1.77518697949
1.83789498194
-1.38700025521
1.32230076045
-0.172116393998
0.112850120901
0.72474507259
-1.3014703108
0.493585101255
0.0119694612541
-1.15509402086
0.0883435945893
4.29475402349
0.86311876653
1.10160095215
0.551843103259
0.472158565349
2.23842464025
0.605537649629
-3.73919613025
1.83761370144
-0.287516400423
0.404979082524
0.237982785399
0.0980511098284
-0.386568682252
-0.745089687051
2.46572591852
-1.87668311906
-2.62889211105
0.412075160794
1.05164390429
0.681393281207
2.38078261667
0.355604786533
-0.57395950358
2.31417734202
-0.140449947256
-3.20443581513
2.58456366512
-0.791133780622
1.17544600925
-1.27563050378
-2.87798134071
1.41582347604
0.208208427625
0.410221750079
-0.473293780619
-1.93449734079
2.64332043943
-0.587501675653
2.1211341024
3.4776664514
0.349539728686
-0.164504243997
0.446043621516
-0.60396924633
-0.879866422162
1.51454343442
-0.480742405302
-1.45434278811
2.14070016703
-0.471028320721
1.24103296201
3.61242710612
1.95808992697
-1.14658709825
0.340264376194
2.00208305447
1.53483609893
-1.34946466247
-3.65653096513
-3.30719851768
-0.737236464226
0.72827116209
0.161232295646
2.68945489433
0.137139472063
0.399807097743
-0.688505991008
-2.86628398048
-3.18764907491
-0.161969657448
-0.224403844943
-0.706904778377
-1.30010728682
1.78716178489
1.37445610113
-3.50267943911
-2.38197723481
-0.591133721929
0.357056211654
1.34808327187
-1.095647607
0.478646212124
3.13488449893
2.19996836639
-0.793076440876
-2.19999726365
-1.37614510454
1.41730910691
1.2302633722
2.02937671496
2.05957770284
-0.1751838482
-1.1937118715
-2.33715607763
0.0953588640681
1.2383154321
-0.76681728646
1.25916772379
-1.12648807399
-0.738209371891
-0.839268388211
-5.16080284782
0.176467443402
-0.860212077925
0.524714152813
-1.61663705384
0.418445891708
0.294514305675
0.588886673578
1.28859176649
-1.34845921254
-0.365090851006
-0.207369548848
1.38369367401
-2.787390989
1.22228425588
0.328015921718
-0.174539052602
-2.5379223636
-1.96501189419
-0.534261157258
-0.843308913873
-2.60453628166
1.92525666421
2.58493485693
-1.31705018198
-1.47435058387
0.24175040553
-0.954739928811
-0.920156478996
1.5607900904
-1.03526284659
0.116499059519
0.431302625788
3.11321464029
0.159329004861
-1.49557210471
-0.478657859145
6.25911803075
-2.603987222
-1.42363673581
1.74469112901
0.218039152888
-0.889453508394
-1.19175275591
0.367544449523
1.30329068637
-0.316147182101
1.182452159
1.48698583167
-0.214791390987
0.152782794817
1.54783752473
-2.01458775704
0.567900713069
-3.3865380247
-0.50864638099
-2.16031807022
0.705657711839
-0.512833783838
-1.22713207226
2.01272491836
-4.75407103273
-0.602798926554
0.362160806465
-1.85233110173
-1.16316506637
-0.991679273576
1.66439573595
-0.107019720155
-0.25038957603
-0.77227170719
0.940969317743
3.17811024398
-0.730002961078
1.72094493474
-0.374299204264
-3.08656621969
-0.105481304113
-0.752990396168
3.40186395703
1.97080344651
-1.88871685417
1.28552736404
3.25085810772
-0.0616122363382
-1.56930216192
-0.821344519419
-0.726770904795
-4.46794525618
0.74129606728
-0.228142197965
1.89755710163
-0.00148189609065
3.55875574448
-1.19647934458
-0.379755813282
-0.73843924171
-0.431747084405
-0.617998478613
-0.318018257306
-3.27932381337
0.809397253693
-0.402620034686
-0.462911797453
-1.04494835525
3.7487226481
1.10288425851